n -t * -s 0  -x 852 -y 356 -Z 0 -z 25  -v circle -c black
n -t * -s 1  -x 515 -y 538 -Z 0 -z 25  -v circle -c black
n -t * -s 2  -x 303 -y 432 -Z 0 -z 25  -v circle -c black
n -t * -s 3  -x 220 -y 644 -Z 0 -z 25  -v circle -c black
n -t * -s 4  -x 210 -y 412 -Z 0 -z 25  -v circle -c black
n -t * -s 5  -x 572 -y 952 -Z 0 -z 25  -v circle -c black
n -t * -s 6  -x 97 -y 375 -Z 0 -z 25  -v circle -c black
n -t * -s 7  -x 839 -y 84 -Z 0 -z 25  -v circle -c black
n -t * -s 8  -x 233 -y 714 -Z 0 -z 25  -v circle -c black
n -t * -s 9  -x 133 -y 257 -Z 0 -z 25  -v circle -c black
V -t * -v 1.0a5 -a 0
W -t * -x 1000 -y 1000
A -t * -n 1 -p 0 -o 0x7fffffff -c 30 -a 1
A -t * -h 1 -m 1073741823 -s 0
+ -t 0.010000000 -s 0 -d -1 -p tcp -e 40 -c 2 -a 0 -i 0 -k AGT 
- -t 0.010000000 -s 0 -d -1 -p tcp -e 40 -c 2 -a 0 -i 0 -k AGT
h -t 0.010000000 -s 0 -d -1 -p tcp -e 40 -c 2 -a 0 -i 0 -k AGT
+ -t 0.010000000 -s 1 -d -1 -p tcp -e 40 -c 2 -a 0 -i 1 -k AGT 
- -t 0.010000000 -s 1 -d -1 -p tcp -e 40 -c 2 -a 0 -i 1 -k AGT
h -t 0.010000000 -s 1 -d -1 -p tcp -e 40 -c 2 -a 0 -i 1 -k AGT
+ -t 0.010000000 -s 2 -d -1 -p tcp -e 40 -c 2 -a 0 -i 2 -k AGT 
- -t 0.010000000 -s 2 -d -1 -p tcp -e 40 -c 2 -a 0 -i 2 -k AGT
h -t 0.010000000 -s 2 -d -1 -p tcp -e 40 -c 2 -a 0 -i 2 -k AGT
+ -t 0.010000000 -s 3 -d -1 -p tcp -e 40 -c 2 -a 0 -i 3 -k AGT 
- -t 0.010000000 -s 3 -d -1 -p tcp -e 40 -c 2 -a 0 -i 3 -k AGT
h -t 0.010000000 -s 3 -d -1 -p tcp -e 40 -c 2 -a 0 -i 3 -k AGT
+ -t 0.010000000 -s 4 -d -1 -p tcp -e 40 -c 2 -a 0 -i 4 -k AGT 
- -t 0.010000000 -s 4 -d -1 -p tcp -e 40 -c 2 -a 0 -i 4 -k AGT
h -t 0.010000000 -s 4 -d -1 -p tcp -e 40 -c 2 -a 0 -i 4 -k AGT
+ -t 0.010000000 -s 0 -d -1 -p AODV -e 48 -c 2 -a 0 -i 0 -k RTR 
- -t 0.010000000 -s 0 -d -1 -p AODV -e 48 -c 2 -a 0 -i 0 -k RTR
h -t 0.010000000 -s 0 -d -1 -p AODV -e 48 -c 2 -a 0 -i 0 -k RTR
+ -t 0.010000000 -s 1 -d -1 -p AODV -e 48 -c 2 -a 0 -i 0 -k RTR 
- -t 0.010000000 -s 1 -d -1 -p AODV -e 48 -c 2 -a 0 -i 0 -k RTR
h -t 0.010000000 -s 1 -d -1 -p AODV -e 48 -c 2 -a 0 -i 0 -k RTR
+ -t 0.010000000 -s 2 -d -1 -p AODV -e 48 -c 2 -a 0 -i 0 -k RTR 
- -t 0.010000000 -s 2 -d -1 -p AODV -e 48 -c 2 -a 0 -i 0 -k RTR
h -t 0.010000000 -s 2 -d -1 -p AODV -e 48 -c 2 -a 0 -i 0 -k RTR
+ -t 0.010000000 -s 3 -d -1 -p AODV -e 48 -c 2 -a 0 -i 0 -k RTR 
- -t 0.010000000 -s 3 -d -1 -p AODV -e 48 -c 2 -a 0 -i 0 -k RTR
h -t 0.010000000 -s 3 -d -1 -p AODV -e 48 -c 2 -a 0 -i 0 -k RTR
+ -t 0.010000000 -s 4 -d -1 -p AODV -e 48 -c 2 -a 0 -i 0 -k RTR 
- -t 0.010000000 -s 4 -d -1 -p AODV -e 48 -c 2 -a 0 -i 0 -k RTR
h -t 0.010000000 -s 4 -d -1 -p AODV -e 48 -c 2 -a 0 -i 0 -k RTR
r -t 0.011148317 -s 4 -d -1 -p AODV -e 48 -c 2 -a 0 -i 0 -k RTR
r -t 0.011148712 -s 6 -d -1 -p AODV -e 48 -c 2 -a 0 -i 0 -k RTR
r -t 0.011148759 -s 3 -d -1 -p AODV -e 48 -c 2 -a 0 -i 0 -k RTR
r -t 0.011148813 -s 9 -d -1 -p AODV -e 48 -c 2 -a 0 -i 0 -k RTR
+ -t 0.011576658 -s 6 -d -1 -p AODV -e 48 -c 2 -a 0 -i 0 -k RTR 
- -t 0.011576658 -s 6 -d -1 -p AODV -e 48 -c 2 -a 0 -i 0 -k RTR
h -t 0.011576658 -s 6 -d -1 -p AODV -e 48 -c 2 -a 0 -i 0 -k RTR
r -t 0.012086996 -s 8 -d -1 -p AODV -e 48 -c 2 -a 0 -i 0 -k RTR
r -t 0.012087518 -s 2 -d -1 -p AODV -e 48 -c 2 -a 0 -i 0 -k RTR
r -t 0.012087533 -s 4 -d -1 -p AODV -e 48 -c 2 -a 0 -i 0 -k RTR
+ -t 0.012286896 -s 9 -d -1 -p AODV -e 48 -c 2 -a 0 -i 0 -k RTR 
- -t 0.012286896 -s 9 -d -1 -p AODV -e 48 -c 2 -a 0 -i 0 -k RTR
h -t 0.012286896 -s 9 -d -1 -p AODV -e 48 -c 2 -a 0 -i 0 -k RTR
+ -t 0.012789771 -s 4 -d -1 -p AODV -e 48 -c 2 -a 0 -i 0 -k RTR 
- -t 0.012789771 -s 4 -d -1 -p AODV -e 48 -c 2 -a 0 -i 0 -k RTR
h -t 0.012789771 -s 4 -d -1 -p AODV -e 48 -c 2 -a 0 -i 0 -k RTR
+ -t 0.013028906 -s 2 -d -1 -p AODV -e 48 -c 2 -a 0 -i 0 -k RTR 
- -t 0.013028906 -s 2 -d -1 -p AODV -e 48 -c 2 -a 0 -i 0 -k RTR
h -t 0.013028906 -s 2 -d -1 -p AODV -e 48 -c 2 -a 0 -i 0 -k RTR
r -t 0.013105850 -s 2 -d -1 -p AODV -e 48 -c 2 -a 0 -i 0 -k RTR
r -t 0.013105929 -s 6 -d -1 -p AODV -e 48 -c 2 -a 0 -i 0 -k RTR
r -t 0.013106110 -s 9 -d -1 -p AODV -e 48 -c 2 -a 0 -i 0 -k RTR
r -t 0.013106307 -s 3 -d -1 -p AODV -e 48 -c 2 -a 0 -i 0 -k RTR
+ -t 0.013835049 -s 8 -d -1 -p AODV -e 48 -c 2 -a 0 -i 0 -k RTR 
- -t 0.013835049 -s 8 -d -1 -p AODV -e 48 -c 2 -a 0 -i 0 -k RTR
h -t 0.013835049 -s 8 -d -1 -p AODV -e 48 -c 2 -a 0 -i 0 -k RTR
r -t 0.014084167 -s 4 -d -1 -p AODV -e 48 -c 2 -a 0 -i 0 -k RTR
r -t 0.014084563 -s 6 -d -1 -p AODV -e 48 -c 2 -a 0 -i 0 -k RTR
+ -t 0.014084563 -s 6 -d 2 -p AODV -e 44 -c 2 -a 0 -i 0 -k RTR 
- -t 0.014084563 -s 6 -d 2 -p AODV -e 44 -c 2 -a 0 -i 0 -k RTR
h -t 0.014084563 -s 6 -d 2 -p AODV -e 44 -c 2 -a 0 -i 0 -k RTR
r -t 0.014084609 -s 3 -d -1 -p AODV -e 48 -c 2 -a 0 -i 0 -k RTR
r -t 0.014084640 -s 1 -d -1 -p AODV -e 48 -c 2 -a 0 -i 0 -k RTR
r -t 0.014084663 -s 9 -d -1 -p AODV -e 48 -c 2 -a 0 -i 0 -k RTR
r -t 0.015103075 -s 6 -d -1 -p AODV -e 48 -c 2 -a 0 -i 0 -k RTR
r -t 0.015103240 -s 4 -d -1 -p AODV -e 48 -c 2 -a 0 -i 0 -k RTR
r -t 0.015103477 -s 2 -d -1 -p AODV -e 48 -c 2 -a 0 -i 0 -k RTR
r -t 0.016021557 -s 2 -d -1 -p AODV -e 48 -c 2 -a 0 -i 0 -k RTR
r -t 0.016021637 -s 6 -d -1 -p AODV -e 48 -c 2 -a 0 -i 0 -k RTR
r -t 0.016021817 -s 9 -d -1 -p AODV -e 48 -c 2 -a 0 -i 0 -k RTR
r -t 0.016022014 -s 3 -d -1 -p AODV -e 48 -c 2 -a 0 -i 0 -k RTR
+ -t 0.016256235 -s 1 -d -1 -p AODV -e 48 -c 2 -a 0 -i 0 -k RTR 
- -t 0.016256235 -s 1 -d -1 -p AODV -e 48 -c 2 -a 0 -i 0 -k RTR
h -t 0.016256235 -s 1 -d -1 -p AODV -e 48 -c 2 -a 0 -i 0 -k RTR
+ -t 0.016496920 -s 9 -d -1 -p AODV -e 48 -c 2 -a 0 -i 0 -k RTR 
- -t 0.016496920 -s 9 -d -1 -p AODV -e 48 -c 2 -a 0 -i 0 -k RTR
h -t 0.016496920 -s 9 -d -1 -p AODV -e 48 -c 2 -a 0 -i 0 -k RTR
r -t 0.016940033 -s 4 -d -1 -p AODV -e 48 -c 2 -a 0 -i 0 -k RTR
r -t 0.016940048 -s 9 -d -1 -p AODV -e 48 -c 2 -a 0 -i 0 -k RTR
r -t 0.016940349 -s 2 -d -1 -p AODV -e 48 -c 2 -a 0 -i 0 -k RTR
+ -t 0.017192707 -s 2 -d -1 -p AODV -e 48 -c 2 -a 0 -i 0 -k RTR 
- -t 0.017192707 -s 2 -d -1 -p AODV -e 48 -c 2 -a 0 -i 0 -k RTR
h -t 0.017192707 -s 2 -d -1 -p AODV -e 48 -c 2 -a 0 -i 0 -k RTR
+ -t 0.017549435 -s 3 -d -1 -p AODV -e 48 -c 2 -a 0 -i 0 -k RTR 
- -t 0.017549435 -s 3 -d -1 -p AODV -e 48 -c 2 -a 0 -i 0 -k RTR
h -t 0.017549435 -s 3 -d -1 -p AODV -e 48 -c 2 -a 0 -i 0 -k RTR
+ -t 0.017767269 -s 9 -d -1 -p AODV -e 48 -c 2 -a 0 -i 0 -k RTR 
- -t 0.017767269 -s 9 -d -1 -p AODV -e 48 -c 2 -a 0 -i 0 -k RTR
h -t 0.017767269 -s 9 -d -1 -p AODV -e 48 -c 2 -a 0 -i 0 -k RTR
+ -t 0.018292417 -s 6 -d -1 -p AODV -e 48 -c 2 -a 0 -i 0 -k RTR 
- -t 0.018292417 -s 6 -d -1 -p AODV -e 48 -c 2 -a 0 -i 0 -k RTR
h -t 0.018292417 -s 6 -d -1 -p AODV -e 48 -c 2 -a 0 -i 0 -k RTR
r -t 0.018836666 -s 4 -d -1 -p AODV -e 48 -c 2 -a 0 -i 0 -k RTR
r -t 0.018837061 -s 6 -d -1 -p AODV -e 48 -c 2 -a 0 -i 0 -k RTR
r -t 0.018837108 -s 3 -d -1 -p AODV -e 48 -c 2 -a 0 -i 0 -k RTR
r -t 0.018837139 -s 1 -d -1 -p AODV -e 48 -c 2 -a 0 -i 0 -k RTR
r -t 0.018837162 -s 9 -d -1 -p AODV -e 48 -c 2 -a 0 -i 0 -k RTR
r -t 0.019775929 -s 2 -d -1 -p AODV -e 48 -c 2 -a 0 -i 0 -k RTR
+ -t 0.020029375 -s 3 -d -1 -p AODV -e 48 -c 2 -a 0 -i 0 -k RTR 
- -t 0.020029375 -s 3 -d -1 -p AODV -e 48 -c 2 -a 0 -i 0 -k RTR
h -t 0.020029375 -s 3 -d -1 -p AODV -e 48 -c 2 -a 0 -i 0 -k RTR
+ -t 0.020157818 -s 4 -d -1 -p AODV -e 48 -c 2 -a 0 -i 0 -k RTR 
- -t 0.020157818 -s 4 -d -1 -p AODV -e 48 -c 2 -a 0 -i 0 -k RTR
h -t 0.020157818 -s 4 -d -1 -p AODV -e 48 -c 2 -a 0 -i 0 -k RTR
+ -t 0.020710792 -s 1 -d -1 -p AODV -e 48 -c 2 -a 0 -i 0 -k RTR 
- -t 0.020710792 -s 1 -d -1 -p AODV -e 48 -c 2 -a 0 -i 0 -k RTR
h -t 0.020710792 -s 1 -d -1 -p AODV -e 48 -c 2 -a 0 -i 0 -k RTR
r -t 0.022644889 -s 6 -d -1 -p AODV -e 48 -c 2 -a 0 -i 0 -k RTR
r -t 0.022645055 -s 4 -d -1 -p AODV -e 48 -c 2 -a 0 -i 0 -k RTR
r -t 0.022645291 -s 2 -d -1 -p AODV -e 48 -c 2 -a 0 -i 0 -k RTR
r -t 0.023583285 -s 4 -d -1 -p AODV -e 48 -c 2 -a 0 -i 0 -k RTR
r -t 0.023583300 -s 9 -d -1 -p AODV -e 48 -c 2 -a 0 -i 0 -k RTR
r -t 0.023583602 -s 2 -d -1 -p AODV -e 48 -c 2 -a 0 -i 0 -k RTR
r -t 0.024501711 -s 6 -d -1 -p AODV -e 48 -c 2 -a 0 -i 0 -k RTR
r -t 0.024501877 -s 4 -d -1 -p AODV -e 48 -c 2 -a 0 -i 0 -k RTR
r -t 0.024502114 -s 2 -d -1 -p AODV -e 48 -c 2 -a 0 -i 0 -k RTR
r -t 0.025460194 -s 2 -d -1 -p AODV -e 48 -c 2 -a 0 -i 0 -k RTR
r -t 0.025460274 -s 6 -d -1 -p AODV -e 48 -c 2 -a 0 -i 0 -k RTR
r -t 0.025460454 -s 9 -d -1 -p AODV -e 48 -c 2 -a 0 -i 0 -k RTR
r -t 0.025460651 -s 3 -d -1 -p AODV -e 48 -c 2 -a 0 -i 0 -k RTR
r -t 0.026398889 -s 8 -d -1 -p AODV -e 48 -c 2 -a 0 -i 0 -k RTR
r -t 0.027476889 -s 8 -d -1 -p AODV -e 48 -c 2 -a 0 -i 0 -k RTR
r -t 0.027477410 -s 2 -d -1 -p AODV -e 48 -c 2 -a 0 -i 0 -k RTR
r -t 0.027477425 -s 4 -d -1 -p AODV -e 48 -c 2 -a 0 -i 0 -k RTR
+ -t 0.028968826 -s 8 -d -1 -p AODV -e 48 -c 2 -a 0 -i 0 -k RTR 
- -t 0.028968826 -s 8 -d -1 -p AODV -e 48 -c 2 -a 0 -i 0 -k RTR
h -t 0.028968826 -s 8 -d -1 -p AODV -e 48 -c 2 -a 0 -i 0 -k RTR
+ -t 0.029238579 -s 2 -d -1 -p AODV -e 48 -c 2 -a 0 -i 0 -k RTR 
- -t 0.029238579 -s 2 -d -1 -p AODV -e 48 -c 2 -a 0 -i 0 -k RTR
h -t 0.029238579 -s 2 -d -1 -p AODV -e 48 -c 2 -a 0 -i 0 -k RTR
+ -t 0.029425775 -s 2 -d 3 -p AODV -e 44 -c 2 -a 0 -i 0 -k RTR 
- -t 0.029425775 -s 2 -d 3 -p AODV -e 44 -c 2 -a 0 -i 0 -k RTR
h -t 0.029425775 -s 2 -d 3 -p AODV -e 44 -c 2 -a 0 -i 0 -k RTR
r -t 0.030858092 -s 4 -d -1 -p AODV -e 48 -c 2 -a 0 -i 0 -k RTR
r -t 0.030858487 -s 6 -d -1 -p AODV -e 48 -c 2 -a 0 -i 0 -k RTR
r -t 0.030858533 -s 3 -d -1 -p AODV -e 48 -c 2 -a 0 -i 0 -k RTR
r -t 0.030858565 -s 1 -d -1 -p AODV -e 48 -c 2 -a 0 -i 0 -k RTR
r -t 0.030858588 -s 9 -d -1 -p AODV -e 48 -c 2 -a 0 -i 0 -k RTR
+ -t 0.031134062 -s 6 -d -1 -p AODV -e 48 -c 2 -a 0 -i 0 -k RTR 
- -t 0.031134062 -s 6 -d -1 -p AODV -e 48 -c 2 -a 0 -i 0 -k RTR
h -t 0.031134062 -s 6 -d -1 -p AODV -e 48 -c 2 -a 0 -i 0 -k RTR
+ -t 0.032720730 -s 9 -d -1 -p AODV -e 48 -c 2 -a 0 -i 0 -k RTR 
- -t 0.032720730 -s 9 -d -1 -p AODV -e 48 -c 2 -a 0 -i 0 -k RTR
h -t 0.032720730 -s 9 -d -1 -p AODV -e 48 -c 2 -a 0 -i 0 -k RTR
+ -t 0.032925108 -s 8 -d -1 -p AODV -e 48 -c 2 -a 0 -i 0 -k RTR 
- -t 0.032925108 -s 8 -d -1 -p AODV -e 48 -c 2 -a 0 -i 0 -k RTR
h -t 0.032925108 -s 8 -d -1 -p AODV -e 48 -c 2 -a 0 -i 0 -k RTR
r -t 0.033095355 -s 2 -d -1 -p AODV -e 48 -c 2 -a 0 -i 0 -k RTR
+ -t 0.034131703 -s 3 -d -1 -p AODV -e 48 -c 2 -a 0 -i 0 -k RTR 
- -t 0.034131703 -s 3 -d -1 -p AODV -e 48 -c 2 -a 0 -i 0 -k RTR
h -t 0.034131703 -s 3 -d -1 -p AODV -e 48 -c 2 -a 0 -i 0 -k RTR
r -t 0.034377910 -s 3 -d -1 -p AODV -e 48 -c 2 -a 0 -i 0 -k RTR
r -t 0.034378557 -s 6 -d -1 -p AODV -e 48 -c 2 -a 0 -i 0 -k RTR
+ -t 0.035114964 -s 4 -d -1 -p AODV -e 48 -c 2 -a 0 -i 0 -k RTR 
- -t 0.035114964 -s 4 -d -1 -p AODV -e 48 -c 2 -a 0 -i 0 -k RTR
h -t 0.035114964 -s 4 -d -1 -p AODV -e 48 -c 2 -a 0 -i 0 -k RTR
r -t 0.035761942 -s 3 -d -1 -p AODV -e 48 -c 2 -a 0 -i 0 -k RTR
r -t 0.036780179 -s 8 -d -1 -p AODV -e 48 -c 2 -a 0 -i 0 -k RTR
+ -t 0.036780179 -s 8 -d 3 -p AODV -e 44 -c 2 -a 0 -i 0 -k RTR 
- -t 0.036780179 -s 8 -d 3 -p AODV -e 44 -c 2 -a 0 -i 0 -k RTR
h -t 0.036780179 -s 8 -d 3 -p AODV -e 44 -c 2 -a 0 -i 0 -k RTR
r -t 0.036780701 -s 2 -d -1 -p AODV -e 48 -c 2 -a 0 -i 0 -k RTR
r -t 0.036780716 -s 4 -d -1 -p AODV -e 48 -c 2 -a 0 -i 0 -k RTR
r -t 0.037719033 -s 2 -d -1 -p AODV -e 48 -c 2 -a 0 -i 0 -k RTR
r -t 0.037719112 -s 6 -d -1 -p AODV -e 48 -c 2 -a 0 -i 0 -k RTR
r -t 0.037719293 -s 9 -d -1 -p AODV -e 48 -c 2 -a 0 -i 0 -k RTR
r -t 0.037719490 -s 3 -d -1 -p AODV -e 48 -c 2 -a 0 -i 0 -k RTR
r -t 0.038717509 -s 4 -d -1 -p AODV -e 48 -c 2 -a 0 -i 0 -k RTR
r -t 0.038717524 -s 9 -d -1 -p AODV -e 48 -c 2 -a 0 -i 0 -k RTR
r -t 0.038717825 -s 2 -d -1 -p AODV -e 48 -c 2 -a 0 -i 0 -k RTR
r -t 0.040280567 -s 3 -d -1 -p AODV -e 48 -c 2 -a 0 -i 0 -k RTR
+ -t 0.044634991 -s 3 -d 2 -p AODV -e 44 -c 2 -a 0 -i 0 -k RTR 
- -t 0.044634991 -s 3 -d 2 -p AODV -e 44 -c 2 -a 0 -i 0 -k RTR
h -t 0.044634991 -s 3 -d 2 -p AODV -e 44 -c 2 -a 0 -i 0 -k RTR
+ -t 0.047637027 -s 3 -d 2 -p tcp -e 40 -c 2 -a 0 -i 3 -k RTR 
- -t 0.047637027 -s 3 -d 2 -p tcp -e 40 -c 2 -a 0 -i 3 -k RTR
h -t 0.047637027 -s 3 -d 2 -p tcp -e 40 -c 2 -a 0 -i 3 -k RTR
d -t 0.047637027 -s 3 -d 2 -p AODV -e 44 -c 2 -a 0 -i 0 -k IFQ
+ -t 0.054863375 -s 2 -d 6 -p tcp -e 40 -c 2 -a 0 -i 3 -k RTR 
- -t 0.054863375 -s 2 -d 6 -p tcp -e 40 -c 2 -a 0 -i 3 -k RTR
h -t 0.054863375 -s 2 -d 6 -p tcp -e 40 -c 2 -a 0 -i 3 -k RTR
r -t 0.057069512 -s 6 -d 6 -p tcp -e 40 -c 2 -a 0 -i 3 -k AGT
+ -t 0.057069512 -s 6 -d -1 -p ack -e 40 -c 2 -a 0 -i 5 -k AGT 
- -t 0.057069512 -s 6 -d -1 -p ack -e 40 -c 2 -a 0 -i 5 -k AGT
h -t 0.057069512 -s 6 -d -1 -p ack -e 40 -c 2 -a 0 -i 5 -k AGT
+ -t 0.057069512 -s 6 -d 2 -p ack -e 40 -c 2 -a 0 -i 5 -k RTR 
- -t 0.057069512 -s 6 -d 2 -p ack -e 40 -c 2 -a 0 -i 5 -k RTR
h -t 0.057069512 -s 6 -d 2 -p ack -e 40 -c 2 -a 0 -i 5 -k RTR
+ -t 0.059195650 -s 2 -d 3 -p ack -e 40 -c 2 -a 0 -i 5 -k RTR 
- -t 0.059195650 -s 2 -d 3 -p ack -e 40 -c 2 -a 0 -i 5 -k RTR
h -t 0.059195650 -s 2 -d 3 -p ack -e 40 -c 2 -a 0 -i 5 -k RTR
r -t 0.061361926 -s 3 -d 3 -p ack -e 40 -c 2 -a 0 -i 5 -k AGT
+ -t 0.061361926 -s 3 -d -1 -p tcp -e 1540 -c 2 -a 0 -i 6 -k AGT 
- -t 0.061361926 -s 3 -d -1 -p tcp -e 1540 -c 2 -a 0 -i 6 -k AGT
h -t 0.061361926 -s 3 -d -1 -p tcp -e 1540 -c 2 -a 0 -i 6 -k AGT
+ -t 0.061361926 -s 3 -d -1 -p tcp -e 1540 -c 2 -a 0 -i 7 -k AGT 
- -t 0.061361926 -s 3 -d -1 -p tcp -e 1540 -c 2 -a 0 -i 7 -k AGT
h -t 0.061361926 -s 3 -d -1 -p tcp -e 1540 -c 2 -a 0 -i 7 -k AGT
+ -t 0.061361926 -s 3 -d 2 -p tcp -e 1540 -c 2 -a 0 -i 6 -k RTR 
- -t 0.061361926 -s 3 -d 2 -p tcp -e 1540 -c 2 -a 0 -i 6 -k RTR
h -t 0.061361926 -s 3 -d 2 -p tcp -e 1540 -c 2 -a 0 -i 6 -k RTR
+ -t 0.061361926 -s 3 -d 2 -p tcp -e 1540 -c 2 -a 0 -i 7 -k RTR 
- -t 0.061361926 -s 3 -d 2 -p tcp -e 1540 -c 2 -a 0 -i 7 -k RTR
h -t 0.061361926 -s 3 -d 2 -p tcp -e 1540 -c 2 -a 0 -i 7 -k RTR
+ -t 0.075768203 -s 2 -d 6 -p tcp -e 1540 -c 2 -a 0 -i 6 -k RTR 
- -t 0.075768203 -s 2 -d 6 -p tcp -e 1540 -c 2 -a 0 -i 6 -k RTR
h -t 0.075768203 -s 2 -d 6 -p tcp -e 1540 -c 2 -a 0 -i 6 -k RTR
+ -t 0.089755238 -s 2 -d 6 -p tcp -e 1540 -c 2 -a 0 -i 7 -k RTR 
- -t 0.089755238 -s 2 -d 6 -p tcp -e 1540 -c 2 -a 0 -i 7 -k RTR
h -t 0.089755238 -s 2 -d 6 -p tcp -e 1540 -c 2 -a 0 -i 7 -k RTR
r -t 0.103601376 -s 6 -d 6 -p tcp -e 1540 -c 2 -a 0 -i 6 -k AGT
+ -t 0.103601376 -s 6 -d -1 -p ack -e 40 -c 2 -a 0 -i 8 -k AGT 
- -t 0.103601376 -s 6 -d -1 -p ack -e 40 -c 2 -a 0 -i 8 -k AGT
h -t 0.103601376 -s 6 -d -1 -p ack -e 40 -c 2 -a 0 -i 8 -k AGT
+ -t 0.103601376 -s 6 -d 2 -p ack -e 40 -c 2 -a 0 -i 8 -k RTR 
- -t 0.103601376 -s 6 -d 2 -p ack -e 40 -c 2 -a 0 -i 8 -k RTR
h -t 0.103601376 -s 6 -d 2 -p ack -e 40 -c 2 -a 0 -i 8 -k RTR
r -t 0.117548226 -s 6 -d 6 -p tcp -e 1540 -c 2 -a 0 -i 7 -k AGT
+ -t 0.117548226 -s 6 -d -1 -p ack -e 40 -c 2 -a 0 -i 9 -k AGT 
- -t 0.117548226 -s 6 -d -1 -p ack -e 40 -c 2 -a 0 -i 9 -k AGT
h -t 0.117548226 -s 6 -d -1 -p ack -e 40 -c 2 -a 0 -i 9 -k AGT
+ -t 0.117548226 -s 6 -d 2 -p ack -e 40 -c 2 -a 0 -i 9 -k RTR 
- -t 0.117548226 -s 6 -d 2 -p ack -e 40 -c 2 -a 0 -i 9 -k RTR
h -t 0.117548226 -s 6 -d 2 -p ack -e 40 -c 2 -a 0 -i 9 -k RTR
+ -t 0.119654363 -s 2 -d 3 -p ack -e 40 -c 2 -a 0 -i 8 -k RTR 
- -t 0.119654363 -s 2 -d 3 -p ack -e 40 -c 2 -a 0 -i 8 -k RTR
h -t 0.119654363 -s 2 -d 3 -p ack -e 40 -c 2 -a 0 -i 8 -k RTR
+ -t 0.121481213 -s 2 -d 3 -p ack -e 40 -c 2 -a 0 -i 9 -k RTR 
- -t 0.121481213 -s 2 -d 3 -p ack -e 40 -c 2 -a 0 -i 9 -k RTR
h -t 0.121481213 -s 2 -d 3 -p ack -e 40 -c 2 -a 0 -i 9 -k RTR
r -t 0.123527490 -s 3 -d 3 -p ack -e 40 -c 2 -a 0 -i 8 -k AGT
+ -t 0.123527490 -s 3 -d -1 -p tcp -e 1540 -c 2 -a 0 -i 10 -k AGT 
- -t 0.123527490 -s 3 -d -1 -p tcp -e 1540 -c 2 -a 0 -i 10 -k AGT
h -t 0.123527490 -s 3 -d -1 -p tcp -e 1540 -c 2 -a 0 -i 10 -k AGT
+ -t 0.123527490 -s 3 -d -1 -p tcp -e 1540 -c 2 -a 0 -i 11 -k AGT 
- -t 0.123527490 -s 3 -d -1 -p tcp -e 1540 -c 2 -a 0 -i 11 -k AGT
h -t 0.123527490 -s 3 -d -1 -p tcp -e 1540 -c 2 -a 0 -i 11 -k AGT
+ -t 0.123527490 -s 3 -d 2 -p tcp -e 1540 -c 2 -a 0 -i 10 -k RTR 
- -t 0.123527490 -s 3 -d 2 -p tcp -e 1540 -c 2 -a 0 -i 10 -k RTR
h -t 0.123527490 -s 3 -d 2 -p tcp -e 1540 -c 2 -a 0 -i 10 -k RTR
+ -t 0.123527490 -s 3 -d 2 -p tcp -e 1540 -c 2 -a 0 -i 11 -k RTR 
- -t 0.123527490 -s 3 -d 2 -p tcp -e 1540 -c 2 -a 0 -i 11 -k RTR
h -t 0.123527490 -s 3 -d 2 -p tcp -e 1540 -c 2 -a 0 -i 11 -k RTR
+ -t 0.137613766 -s 2 -d 6 -p tcp -e 1540 -c 2 -a 0 -i 10 -k RTR 
- -t 0.137613766 -s 2 -d 6 -p tcp -e 1540 -c 2 -a 0 -i 10 -k RTR
h -t 0.137613766 -s 2 -d 6 -p tcp -e 1540 -c 2 -a 0 -i 10 -k RTR
r -t 0.139540043 -s 3 -d 3 -p ack -e 40 -c 2 -a 0 -i 9 -k AGT
+ -t 0.139540043 -s 3 -d -1 -p tcp -e 1540 -c 2 -a 0 -i 12 -k AGT 
- -t 0.139540043 -s 3 -d -1 -p tcp -e 1540 -c 2 -a 0 -i 12 -k AGT
h -t 0.139540043 -s 3 -d -1 -p tcp -e 1540 -c 2 -a 0 -i 12 -k AGT
+ -t 0.139540043 -s 3 -d -1 -p tcp -e 1540 -c 2 -a 0 -i 13 -k AGT 
- -t 0.139540043 -s 3 -d -1 -p tcp -e 1540 -c 2 -a 0 -i 13 -k AGT
h -t 0.139540043 -s 3 -d -1 -p tcp -e 1540 -c 2 -a 0 -i 13 -k AGT
+ -t 0.139540043 -s 3 -d 2 -p tcp -e 1540 -c 2 -a 0 -i 12 -k RTR 
- -t 0.139540043 -s 3 -d 2 -p tcp -e 1540 -c 2 -a 0 -i 12 -k RTR
h -t 0.139540043 -s 3 -d 2 -p tcp -e 1540 -c 2 -a 0 -i 12 -k RTR
+ -t 0.139540043 -s 3 -d 2 -p tcp -e 1540 -c 2 -a 0 -i 13 -k RTR 
- -t 0.139540043 -s 3 -d 2 -p tcp -e 1540 -c 2 -a 0 -i 13 -k RTR
h -t 0.139540043 -s 3 -d 2 -p tcp -e 1540 -c 2 -a 0 -i 13 -k RTR
+ -t 0.153586320 -s 2 -d 6 -p tcp -e 1540 -c 2 -a 0 -i 11 -k RTR 
- -t 0.153586320 -s 2 -d 6 -p tcp -e 1540 -c 2 -a 0 -i 11 -k RTR
h -t 0.153586320 -s 2 -d 6 -p tcp -e 1540 -c 2 -a 0 -i 11 -k RTR
r -t 0.167632457 -s 6 -d 6 -p tcp -e 1540 -c 2 -a 0 -i 10 -k AGT
+ -t 0.167632457 -s 6 -d -1 -p ack -e 40 -c 2 -a 0 -i 14 -k AGT 
- -t 0.167632457 -s 6 -d -1 -p ack -e 40 -c 2 -a 0 -i 14 -k AGT
h -t 0.167632457 -s 6 -d -1 -p ack -e 40 -c 2 -a 0 -i 14 -k AGT
+ -t 0.167632457 -s 6 -d 2 -p ack -e 40 -c 2 -a 0 -i 14 -k RTR 
- -t 0.167632457 -s 6 -d 2 -p ack -e 40 -c 2 -a 0 -i 14 -k RTR
h -t 0.167632457 -s 6 -d 2 -p ack -e 40 -c 2 -a 0 -i 14 -k RTR
r -t 0.181619307 -s 6 -d 6 -p tcp -e 1540 -c 2 -a 0 -i 11 -k AGT
+ -t 0.181619307 -s 6 -d -1 -p ack -e 40 -c 2 -a 0 -i 15 -k AGT 
- -t 0.181619307 -s 6 -d -1 -p ack -e 40 -c 2 -a 0 -i 15 -k AGT
h -t 0.181619307 -s 6 -d -1 -p ack -e 40 -c 2 -a 0 -i 15 -k AGT
+ -t 0.181619307 -s 6 -d 2 -p ack -e 40 -c 2 -a 0 -i 15 -k RTR 
- -t 0.181619307 -s 6 -d 2 -p ack -e 40 -c 2 -a 0 -i 15 -k RTR
h -t 0.181619307 -s 6 -d 2 -p ack -e 40 -c 2 -a 0 -i 15 -k RTR
+ -t 0.183605444 -s 2 -d 3 -p ack -e 40 -c 2 -a 0 -i 14 -k RTR 
- -t 0.183605444 -s 2 -d 3 -p ack -e 40 -c 2 -a 0 -i 14 -k RTR
h -t 0.183605444 -s 2 -d 3 -p ack -e 40 -c 2 -a 0 -i 14 -k RTR
+ -t 0.185532294 -s 2 -d 3 -p ack -e 40 -c 2 -a 0 -i 15 -k RTR 
- -t 0.185532294 -s 2 -d 3 -p ack -e 40 -c 2 -a 0 -i 15 -k RTR
h -t 0.185532294 -s 2 -d 3 -p ack -e 40 -c 2 -a 0 -i 15 -k RTR
r -t 0.187518571 -s 3 -d 3 -p ack -e 40 -c 2 -a 0 -i 14 -k AGT
+ -t 0.187518571 -s 3 -d -1 -p tcp -e 1540 -c 2 -a 0 -i 16 -k AGT 
- -t 0.187518571 -s 3 -d -1 -p tcp -e 1540 -c 2 -a 0 -i 16 -k AGT
h -t 0.187518571 -s 3 -d -1 -p tcp -e 1540 -c 2 -a 0 -i 16 -k AGT
+ -t 0.187518571 -s 3 -d -1 -p tcp -e 1540 -c 2 -a 0 -i 17 -k AGT 
- -t 0.187518571 -s 3 -d -1 -p tcp -e 1540 -c 2 -a 0 -i 17 -k AGT
h -t 0.187518571 -s 3 -d -1 -p tcp -e 1540 -c 2 -a 0 -i 17 -k AGT
+ -t 0.187518571 -s 3 -d 2 -p tcp -e 1540 -c 2 -a 0 -i 16 -k RTR 
- -t 0.187518571 -s 3 -d 2 -p tcp -e 1540 -c 2 -a 0 -i 16 -k RTR
h -t 0.187518571 -s 3 -d 2 -p tcp -e 1540 -c 2 -a 0 -i 16 -k RTR
+ -t 0.187518571 -s 3 -d 2 -p tcp -e 1540 -c 2 -a 0 -i 17 -k RTR 
- -t 0.187518571 -s 3 -d 2 -p tcp -e 1540 -c 2 -a 0 -i 17 -k RTR
h -t 0.187518571 -s 3 -d 2 -p tcp -e 1540 -c 2 -a 0 -i 17 -k RTR
r -t 0.189405607 -s 3 -d 3 -p ack -e 40 -c 2 -a 0 -i 15 -k AGT
+ -t 0.189405607 -s 3 -d -1 -p tcp -e 1540 -c 2 -a 0 -i 18 -k AGT 
- -t 0.189405607 -s 3 -d -1 -p tcp -e 1540 -c 2 -a 0 -i 18 -k AGT
h -t 0.189405607 -s 3 -d -1 -p tcp -e 1540 -c 2 -a 0 -i 18 -k AGT
+ -t 0.189405607 -s 3 -d -1 -p tcp -e 1540 -c 2 -a 0 -i 19 -k AGT 
- -t 0.189405607 -s 3 -d -1 -p tcp -e 1540 -c 2 -a 0 -i 19 -k AGT
h -t 0.189405607 -s 3 -d -1 -p tcp -e 1540 -c 2 -a 0 -i 19 -k AGT
+ -t 0.189405607 -s 3 -d 2 -p tcp -e 1540 -c 2 -a 0 -i 18 -k RTR 
- -t 0.189405607 -s 3 -d 2 -p tcp -e 1540 -c 2 -a 0 -i 18 -k RTR
h -t 0.189405607 -s 3 -d 2 -p tcp -e 1540 -c 2 -a 0 -i 18 -k RTR
+ -t 0.189405607 -s 3 -d 2 -p tcp -e 1540 -c 2 -a 0 -i 19 -k RTR 
- -t 0.189405607 -s 3 -d 2 -p tcp -e 1540 -c 2 -a 0 -i 19 -k RTR
h -t 0.189405607 -s 3 -d 2 -p tcp -e 1540 -c 2 -a 0 -i 19 -k RTR
+ -t 0.203331883 -s 2 -d 6 -p tcp -e 1540 -c 2 -a 0 -i 12 -k RTR 
- -t 0.203331883 -s 2 -d 6 -p tcp -e 1540 -c 2 -a 0 -i 12 -k RTR
h -t 0.203331883 -s 2 -d 6 -p tcp -e 1540 -c 2 -a 0 -i 12 -k RTR
r -t 0.217578021 -s 6 -d 6 -p tcp -e 1540 -c 2 -a 0 -i 12 -k AGT
+ -t 0.217578021 -s 6 -d -1 -p ack -e 40 -c 2 -a 0 -i 20 -k AGT 
- -t 0.217578021 -s 6 -d -1 -p ack -e 40 -c 2 -a 0 -i 20 -k AGT
h -t 0.217578021 -s 6 -d -1 -p ack -e 40 -c 2 -a 0 -i 20 -k AGT
+ -t 0.217578021 -s 6 -d 2 -p ack -e 40 -c 2 -a 0 -i 20 -k RTR 
- -t 0.217578021 -s 6 -d 2 -p ack -e 40 -c 2 -a 0 -i 20 -k RTR
h -t 0.217578021 -s 6 -d 2 -p ack -e 40 -c 2 -a 0 -i 20 -k RTR
+ -t 0.219824158 -s 2 -d 3 -p ack -e 40 -c 2 -a 0 -i 20 -k RTR 
- -t 0.219824158 -s 2 -d 3 -p ack -e 40 -c 2 -a 0 -i 20 -k RTR
h -t 0.219824158 -s 2 -d 3 -p ack -e 40 -c 2 -a 0 -i 20 -k RTR
r -t 0.221670435 -s 3 -d 3 -p ack -e 40 -c 2 -a 0 -i 20 -k AGT
+ -t 0.221670435 -s 3 -d -1 -p tcp -e 1540 -c 2 -a 0 -i 21 -k AGT 
- -t 0.221670435 -s 3 -d -1 -p tcp -e 1540 -c 2 -a 0 -i 21 -k AGT
h -t 0.221670435 -s 3 -d -1 -p tcp -e 1540 -c 2 -a 0 -i 21 -k AGT
+ -t 0.221670435 -s 3 -d -1 -p tcp -e 1540 -c 2 -a 0 -i 22 -k AGT 
- -t 0.221670435 -s 3 -d -1 -p tcp -e 1540 -c 2 -a 0 -i 22 -k AGT
h -t 0.221670435 -s 3 -d -1 -p tcp -e 1540 -c 2 -a 0 -i 22 -k AGT
+ -t 0.221670435 -s 3 -d 2 -p tcp -e 1540 -c 2 -a 0 -i 21 -k RTR 
- -t 0.221670435 -s 3 -d 2 -p tcp -e 1540 -c 2 -a 0 -i 21 -k RTR
h -t 0.221670435 -s 3 -d 2 -p tcp -e 1540 -c 2 -a 0 -i 21 -k RTR
+ -t 0.221670435 -s 3 -d 2 -p tcp -e 1540 -c 2 -a 0 -i 22 -k RTR 
- -t 0.221670435 -s 3 -d 2 -p tcp -e 1540 -c 2 -a 0 -i 22 -k RTR
h -t 0.221670435 -s 3 -d 2 -p tcp -e 1540 -c 2 -a 0 -i 22 -k RTR
+ -t 0.235636711 -s 2 -d 6 -p tcp -e 1540 -c 2 -a 0 -i 13 -k RTR 
- -t 0.235636711 -s 2 -d 6 -p tcp -e 1540 -c 2 -a 0 -i 13 -k RTR
h -t 0.235636711 -s 2 -d 6 -p tcp -e 1540 -c 2 -a 0 -i 13 -k RTR
+ -t 0.249483747 -s 2 -d 6 -p tcp -e 1540 -c 2 -a 0 -i 16 -k RTR 
- -t 0.249483747 -s 2 -d 6 -p tcp -e 1540 -c 2 -a 0 -i 16 -k RTR
h -t 0.249483747 -s 2 -d 6 -p tcp -e 1540 -c 2 -a 0 -i 16 -k RTR
+ -t 0.263330783 -s 2 -d 6 -p tcp -e 1540 -c 2 -a 0 -i 17 -k RTR 
- -t 0.263330783 -s 2 -d 6 -p tcp -e 1540 -c 2 -a 0 -i 17 -k RTR
h -t 0.263330783 -s 2 -d 6 -p tcp -e 1540 -c 2 -a 0 -i 17 -k RTR
r -t 0.277236920 -s 6 -d 6 -p tcp -e 1540 -c 2 -a 0 -i 13 -k AGT
+ -t 0.277236920 -s 6 -d -1 -p ack -e 40 -c 2 -a 0 -i 23 -k AGT 
- -t 0.277236920 -s 6 -d -1 -p ack -e 40 -c 2 -a 0 -i 23 -k AGT
h -t 0.277236920 -s 6 -d -1 -p ack -e 40 -c 2 -a 0 -i 23 -k AGT
+ -t 0.277236920 -s 6 -d 2 -p ack -e 40 -c 2 -a 0 -i 23 -k RTR 
- -t 0.277236920 -s 6 -d 2 -p ack -e 40 -c 2 -a 0 -i 23 -k RTR
h -t 0.277236920 -s 6 -d 2 -p ack -e 40 -c 2 -a 0 -i 23 -k RTR
+ -t 0.279103057 -s 2 -d 3 -p ack -e 40 -c 2 -a 0 -i 23 -k RTR 
- -t 0.279103057 -s 2 -d 3 -p ack -e 40 -c 2 -a 0 -i 23 -k RTR
h -t 0.279103057 -s 2 -d 3 -p ack -e 40 -c 2 -a 0 -i 23 -k RTR
+ -t 0.293279608 -s 2 -d 6 -p tcp -e 1540 -c 2 -a 0 -i 18 -k RTR 
- -t 0.293279608 -s 2 -d 6 -p tcp -e 1540 -c 2 -a 0 -i 18 -k RTR
h -t 0.293279608 -s 2 -d 6 -p tcp -e 1540 -c 2 -a 0 -i 18 -k RTR
r -t 0.307185745 -s 6 -d 6 -p tcp -e 1540 -c 2 -a 0 -i 16 -k AGT
+ -t 0.307185745 -s 6 -d -1 -p ack -e 40 -c 2 -a 0 -i 24 -k AGT 
- -t 0.307185745 -s 6 -d -1 -p ack -e 40 -c 2 -a 0 -i 24 -k AGT
h -t 0.307185745 -s 6 -d -1 -p ack -e 40 -c 2 -a 0 -i 24 -k AGT
+ -t 0.307185745 -s 6 -d 2 -p ack -e 40 -c 2 -a 0 -i 24 -k RTR 
- -t 0.307185745 -s 6 -d 2 -p ack -e 40 -c 2 -a 0 -i 24 -k RTR
h -t 0.307185745 -s 6 -d 2 -p ack -e 40 -c 2 -a 0 -i 24 -k RTR
+ -t 0.309031882 -s 2 -d 3 -p ack -e 40 -c 2 -a 0 -i 24 -k RTR 
- -t 0.309031882 -s 2 -d 3 -p ack -e 40 -c 2 -a 0 -i 24 -k RTR
h -t 0.309031882 -s 2 -d 3 -p ack -e 40 -c 2 -a 0 -i 24 -k RTR
r -t 0.323158020 -s 6 -d 6 -p tcp -e 1540 -c 2 -a 0 -i 17 -k AGT
+ -t 0.323158020 -s 6 -d -1 -p ack -e 40 -c 2 -a 0 -i 25 -k AGT 
- -t 0.323158020 -s 6 -d -1 -p ack -e 40 -c 2 -a 0 -i 25 -k AGT
h -t 0.323158020 -s 6 -d -1 -p ack -e 40 -c 2 -a 0 -i 25 -k AGT
+ -t 0.323158020 -s 6 -d 2 -p ack -e 40 -c 2 -a 0 -i 25 -k RTR 
- -t 0.323158020 -s 6 -d 2 -p ack -e 40 -c 2 -a 0 -i 25 -k RTR
h -t 0.323158020 -s 6 -d 2 -p ack -e 40 -c 2 -a 0 -i 25 -k RTR
r -t 0.325165009 -s 3 -d 3 -p ack -e 40 -c 2 -a 0 -i 23 -k AGT
+ -t 0.325165009 -s 3 -d -1 -p tcp -e 1540 -c 2 -a 0 -i 26 -k AGT 
- -t 0.325165009 -s 3 -d -1 -p tcp -e 1540 -c 2 -a 0 -i 26 -k AGT
h -t 0.325165009 -s 3 -d -1 -p tcp -e 1540 -c 2 -a 0 -i 26 -k AGT
+ -t 0.325165009 -s 3 -d -1 -p tcp -e 1540 -c 2 -a 0 -i 27 -k AGT 
- -t 0.325165009 -s 3 -d -1 -p tcp -e 1540 -c 2 -a 0 -i 27 -k AGT
h -t 0.325165009 -s 3 -d -1 -p tcp -e 1540 -c 2 -a 0 -i 27 -k AGT
+ -t 0.325165009 -s 3 -d 2 -p tcp -e 1540 -c 2 -a 0 -i 26 -k RTR 
- -t 0.325165009 -s 3 -d 2 -p tcp -e 1540 -c 2 -a 0 -i 26 -k RTR
h -t 0.325165009 -s 3 -d 2 -p tcp -e 1540 -c 2 -a 0 -i 26 -k RTR
+ -t 0.325165009 -s 3 -d 2 -p tcp -e 1540 -c 2 -a 0 -i 27 -k RTR 
- -t 0.325165009 -s 3 -d 2 -p tcp -e 1540 -c 2 -a 0 -i 27 -k RTR
h -t 0.325165009 -s 3 -d 2 -p tcp -e 1540 -c 2 -a 0 -i 27 -k RTR
r -t 0.339131905 -s 6 -d 6 -p tcp -e 1540 -c 2 -a 0 -i 18 -k AGT
+ -t 0.339131905 -s 6 -d -1 -p ack -e 40 -c 2 -a 0 -i 28 -k AGT 
- -t 0.339131905 -s 6 -d -1 -p ack -e 40 -c 2 -a 0 -i 28 -k AGT
h -t 0.339131905 -s 6 -d -1 -p ack -e 40 -c 2 -a 0 -i 28 -k AGT
+ -t 0.339131905 -s 6 -d 2 -p ack -e 40 -c 2 -a 0 -i 28 -k RTR 
- -t 0.339131905 -s 6 -d 2 -p ack -e 40 -c 2 -a 0 -i 28 -k RTR
h -t 0.339131905 -s 6 -d 2 -p ack -e 40 -c 2 -a 0 -i 28 -k RTR
r -t 0.341198894 -s 3 -d 3 -p ack -e 40 -c 2 -a 0 -i 24 -k AGT
+ -t 0.341198894 -s 3 -d -1 -p tcp -e 1540 -c 2 -a 0 -i 29 -k AGT 
- -t 0.341198894 -s 3 -d -1 -p tcp -e 1540 -c 2 -a 0 -i 29 -k AGT
h -t 0.341198894 -s 3 -d -1 -p tcp -e 1540 -c 2 -a 0 -i 29 -k AGT
+ -t 0.341198894 -s 3 -d -1 -p tcp -e 1540 -c 2 -a 0 -i 30 -k AGT 
- -t 0.341198894 -s 3 -d -1 -p tcp -e 1540 -c 2 -a 0 -i 30 -k AGT
h -t 0.341198894 -s 3 -d -1 -p tcp -e 1540 -c 2 -a 0 -i 30 -k AGT
+ -t 0.341198894 -s 3 -d 2 -p tcp -e 1540 -c 2 -a 0 -i 29 -k RTR 
- -t 0.341198894 -s 3 -d 2 -p tcp -e 1540 -c 2 -a 0 -i 29 -k RTR
h -t 0.341198894 -s 3 -d 2 -p tcp -e 1540 -c 2 -a 0 -i 29 -k RTR
+ -t 0.341198894 -s 3 -d 2 -p tcp -e 1540 -c 2 -a 0 -i 30 -k RTR 
- -t 0.341198894 -s 3 -d 2 -p tcp -e 1540 -c 2 -a 0 -i 30 -k RTR
h -t 0.341198894 -s 3 -d 2 -p tcp -e 1540 -c 2 -a 0 -i 30 -k RTR
+ -t 0.355045171 -s 2 -d 6 -p tcp -e 1540 -c 2 -a 0 -i 19 -k RTR 
- -t 0.355045171 -s 2 -d 6 -p tcp -e 1540 -c 2 -a 0 -i 19 -k RTR
h -t 0.355045171 -s 2 -d 6 -p tcp -e 1540 -c 2 -a 0 -i 19 -k RTR
+ -t 0.368872207 -s 2 -d 6 -p tcp -e 1540 -c 2 -a 0 -i 21 -k RTR 
- -t 0.368872207 -s 2 -d 6 -p tcp -e 1540 -c 2 -a 0 -i 21 -k RTR
h -t 0.368872207 -s 2 -d 6 -p tcp -e 1540 -c 2 -a 0 -i 21 -k RTR
r -t 0.382798344 -s 6 -d 6 -p tcp -e 1540 -c 2 -a 0 -i 19 -k AGT
+ -t 0.382798344 -s 6 -d -1 -p ack -e 40 -c 2 -a 0 -i 31 -k AGT 
- -t 0.382798344 -s 6 -d -1 -p ack -e 40 -c 2 -a 0 -i 31 -k AGT
h -t 0.382798344 -s 6 -d -1 -p ack -e 40 -c 2 -a 0 -i 31 -k AGT
+ -t 0.382798344 -s 6 -d 2 -p ack -e 40 -c 2 -a 0 -i 31 -k RTR 
- -t 0.382798344 -s 6 -d 2 -p ack -e 40 -c 2 -a 0 -i 31 -k RTR
h -t 0.382798344 -s 6 -d 2 -p ack -e 40 -c 2 -a 0 -i 31 -k RTR
+ -t 0.384704482 -s 2 -d 3 -p ack -e 40 -c 2 -a 0 -i 25 -k RTR 
- -t 0.384704482 -s 2 -d 3 -p ack -e 40 -c 2 -a 0 -i 25 -k RTR
h -t 0.384704482 -s 2 -d 3 -p ack -e 40 -c 2 -a 0 -i 25 -k RTR
r -t 0.399010619 -s 6 -d 6 -p tcp -e 1540 -c 2 -a 0 -i 21 -k AGT
+ -t 0.399010619 -s 6 -d -1 -p ack -e 40 -c 2 -a 0 -i 32 -k AGT 
- -t 0.399010619 -s 6 -d -1 -p ack -e 40 -c 2 -a 0 -i 32 -k AGT
h -t 0.399010619 -s 6 -d -1 -p ack -e 40 -c 2 -a 0 -i 32 -k AGT
+ -t 0.399010619 -s 6 -d 2 -p ack -e 40 -c 2 -a 0 -i 32 -k RTR 
- -t 0.399010619 -s 6 -d 2 -p ack -e 40 -c 2 -a 0 -i 32 -k RTR
h -t 0.399010619 -s 6 -d 2 -p ack -e 40 -c 2 -a 0 -i 32 -k RTR
+ -t 0.400956756 -s 2 -d 3 -p ack -e 40 -c 2 -a 0 -i 28 -k RTR 
- -t 0.400956756 -s 2 -d 3 -p ack -e 40 -c 2 -a 0 -i 28 -k RTR
h -t 0.400956756 -s 2 -d 3 -p ack -e 40 -c 2 -a 0 -i 28 -k RTR
+ -t 0.414873307 -s 2 -d 6 -p tcp -e 1540 -c 2 -a 0 -i 22 -k RTR 
- -t 0.414873307 -s 2 -d 6 -p tcp -e 1540 -c 2 -a 0 -i 22 -k RTR
h -t 0.414873307 -s 2 -d 6 -p tcp -e 1540 -c 2 -a 0 -i 22 -k RTR
+ -t 0.416889671 -s 2 -d 3 -p ack -e 40 -c 2 -a 0 -i 31 -k RTR 
- -t 0.416889671 -s 2 -d 3 -p ack -e 40 -c 2 -a 0 -i 31 -k RTR
h -t 0.416889671 -s 2 -d 3 -p ack -e 40 -c 2 -a 0 -i 31 -k RTR
+ -t 0.418856521 -s 2 -d 3 -p ack -e 40 -c 2 -a 0 -i 32 -k RTR 
- -t 0.418856521 -s 2 -d 3 -p ack -e 40 -c 2 -a 0 -i 32 -k RTR
h -t 0.418856521 -s 2 -d 3 -p ack -e 40 -c 2 -a 0 -i 32 -k RTR
r -t 0.420742798 -s 3 -d 3 -p ack -e 40 -c 2 -a 0 -i 25 -k AGT
+ -t 0.420742798 -s 3 -d -1 -p tcp -e 1540 -c 2 -a 0 -i 33 -k AGT 
- -t 0.420742798 -s 3 -d -1 -p tcp -e 1540 -c 2 -a 0 -i 33 -k AGT
h -t 0.420742798 -s 3 -d -1 -p tcp -e 1540 -c 2 -a 0 -i 33 -k AGT
+ -t 0.420742798 -s 3 -d -1 -p tcp -e 1540 -c 2 -a 0 -i 34 -k AGT 
- -t 0.420742798 -s 3 -d -1 -p tcp -e 1540 -c 2 -a 0 -i 34 -k AGT
h -t 0.420742798 -s 3 -d -1 -p tcp -e 1540 -c 2 -a 0 -i 34 -k AGT
+ -t 0.420742798 -s 3 -d 2 -p tcp -e 1540 -c 2 -a 0 -i 33 -k RTR 
- -t 0.420742798 -s 3 -d 2 -p tcp -e 1540 -c 2 -a 0 -i 33 -k RTR
h -t 0.420742798 -s 3 -d 2 -p tcp -e 1540 -c 2 -a 0 -i 33 -k RTR
+ -t 0.420742798 -s 3 -d 2 -p tcp -e 1540 -c 2 -a 0 -i 34 -k RTR 
- -t 0.420742798 -s 3 -d 2 -p tcp -e 1540 -c 2 -a 0 -i 34 -k RTR
h -t 0.420742798 -s 3 -d 2 -p tcp -e 1540 -c 2 -a 0 -i 34 -k RTR
+ -t 0.434829074 -s 2 -d 6 -p tcp -e 1540 -c 2 -a 0 -i 26 -k RTR 