s 0.010000000 _0_ AGT  --- 0 tcp 40 [0 0 0 0] ------- [0:0 9:0 32 0] [0 0] 0 0
r 0.010000000 _0_ RTR  --- 0 tcp 40 [0 0 0 0] ------- [0:0 9:0 32 0] [0 0] 0 0
s 0.010000000 _1_ AGT  --- 1 tcp 40 [0 0 0 0] ------- [1:0 8:0 32 0] [0 0] 0 0
r 0.010000000 _1_ RTR  --- 1 tcp 40 [0 0 0 0] ------- [1:0 8:0 32 0] [0 0] 0 0
s 0.010000000 _2_ AGT  --- 2 tcp 40 [0 0 0 0] ------- [2:0 7:0 32 0] [0 0] 0 0
r 0.010000000 _2_ RTR  --- 2 tcp 40 [0 0 0 0] ------- [2:0 7:0 32 0] [0 0] 0 0
s 0.010000000 _3_ AGT  --- 3 tcp 40 [0 0 0 0] ------- [3:0 6:0 32 0] [0 0] 0 0
r 0.010000000 _3_ RTR  --- 3 tcp 40 [0 0 0 0] ------- [3:0 6:0 32 0] [0 0] 0 0
s 0.010000000 _4_ AGT  --- 4 tcp 40 [0 0 0 0] ------- [4:0 5:0 32 0] [0 0] 0 0
r 0.010000000 _4_ RTR  --- 4 tcp 40 [0 0 0 0] ------- [4:0 5:0 32 0] [0 0] 0 0
s 0.010000000 _0_ RTR  --- 0 AODV 48 [0 0 0 0] ------- [0:255 -1:255 30 0] [0x2 1 1 [9 0] [0 4]] (REQUEST)
s 0.010000000 _1_ RTR  --- 0 AODV 48 [0 0 0 0] ------- [1:255 -1:255 30 0] [0x2 1 1 [8 0] [1 4]] (REQUEST)
s 0.010000000 _2_ RTR  --- 0 AODV 48 [0 0 0 0] ------- [2:255 -1:255 30 0] [0x2 1 1 [7 0] [2 4]] (REQUEST)
s 0.010000000 _3_ RTR  --- 0 AODV 48 [0 0 0 0] ------- [3:255 -1:255 30 0] [0x2 1 1 [6 0] [3 4]] (REQUEST)
s 0.010000000 _4_ RTR  --- 0 AODV 48 [0 0 0 0] ------- [4:255 -1:255 30 0] [0x2 1 1 [5 0] [4 4]] (REQUEST)
r 0.011148317 _4_ RTR  --- 0 AODV 48 [0 ffffffff 2 800] ------- [2:255 -1:255 30 0] [0x2 1 1 [7 0] [2 4]] (REQUEST)
r 0.011148712 _6_ RTR  --- 0 AODV 48 [0 ffffffff 2 800] ------- [2:255 -1:255 30 0] [0x2 1 1 [7 0] [2 4]] (REQUEST)
r 0.011148759 _3_ RTR  --- 0 AODV 48 [0 ffffffff 2 800] ------- [2:255 -1:255 30 0] [0x2 1 1 [7 0] [2 4]] (REQUEST)
r 0.011148813 _9_ RTR  --- 0 AODV 48 [0 ffffffff 2 800] ------- [2:255 -1:255 30 0] [0x2 1 1 [7 0] [2 4]] (REQUEST)
s 0.011576658 _6_ RTR  --- 0 AODV 48 [0 ffffffff 2 800] ------- [6:255 -1:255 29 0] [0x2 2 1 [7 0] [2 4]] (REQUEST)
r 0.012086996 _8_ RTR  --- 0 AODV 48 [0 ffffffff 3 800] ------- [3:255 -1:255 30 0] [0x2 1 1 [6 0] [3 4]] (REQUEST)
r 0.012087518 _2_ RTR  --- 0 AODV 48 [0 ffffffff 3 800] ------- [3:255 -1:255 30 0] [0x2 1 1 [6 0] [3 4]] (REQUEST)
r 0.012087533 _4_ RTR  --- 0 AODV 48 [0 ffffffff 3 800] ------- [3:255 -1:255 30 0] [0x2 1 1 [6 0] [3 4]] (REQUEST)
s 0.012286896 _9_ RTR  --- 0 AODV 48 [0 ffffffff 2 800] ------- [9:255 -1:255 29 0] [0x2 2 1 [7 0] [2 4]] (REQUEST)
s 0.012789771 _4_ RTR  --- 0 AODV 48 [0 ffffffff 2 800] ------- [4:255 -1:255 29 0] [0x2 2 1 [7 0] [2 4]] (REQUEST)
s 0.013028906 _2_ RTR  --- 0 AODV 48 [0 ffffffff 3 800] ------- [2:255 -1:255 29 0] [0x2 2 1 [6 0] [3 4]] (REQUEST)
r 0.013105850 _2_ RTR  --- 0 AODV 48 [0 ffffffff 4 800] ------- [4:255 -1:255 30 0] [0x2 1 1 [5 0] [4 4]] (REQUEST)
r 0.013105929 _6_ RTR  --- 0 AODV 48 [0 ffffffff 4 800] ------- [4:255 -1:255 30 0] [0x2 1 1 [5 0] [4 4]] (REQUEST)
r 0.013106110 _9_ RTR  --- 0 AODV 48 [0 ffffffff 4 800] ------- [4:255 -1:255 30 0] [0x2 1 1 [5 0] [4 4]] (REQUEST)
r 0.013106307 _3_ RTR  --- 0 AODV 48 [0 ffffffff 4 800] ------- [4:255 -1:255 30 0] [0x2 1 1 [5 0] [4 4]] (REQUEST)
s 0.013835049 _8_ RTR  --- 0 AODV 48 [0 ffffffff 3 800] ------- [8:255 -1:255 29 0] [0x2 2 1 [6 0] [3 4]] (REQUEST)
r 0.014084167 _4_ RTR  --- 0 AODV 48 [0 ffffffff 2 800] ------- [2:255 -1:255 29 0] [0x2 2 1 [6 0] [3 4]] (REQUEST)
r 0.014084563 _6_ RTR  --- 0 AODV 48 [0 ffffffff 2 800] ------- [2:255 -1:255 29 0] [0x2 2 1 [6 0] [3 4]] (REQUEST)
s 0.014084563 _6_ RTR  --- 0 AODV 44 [0 0 0 0] ------- [6:255 3:255 30 2] [0x4 1 [6 4] 10.000000] (REPLY)
r 0.014084609 _3_ RTR  --- 0 AODV 48 [0 ffffffff 2 800] ------- [2:255 -1:255 29 0] [0x2 2 1 [6 0] [3 4]] (REQUEST)
r 0.014084640 _1_ RTR  --- 0 AODV 48 [0 ffffffff 2 800] ------- [2:255 -1:255 29 0] [0x2 2 1 [6 0] [3 4]] (REQUEST)
r 0.014084663 _9_ RTR  --- 0 AODV 48 [0 ffffffff 2 800] ------- [2:255 -1:255 29 0] [0x2 2 1 [6 0] [3 4]] (REQUEST)
r 0.015103075 _6_ RTR  --- 0 AODV 48 [0 ffffffff 9 800] ------- [9:255 -1:255 29 0] [0x2 2 1 [7 0] [2 4]] (REQUEST)
r 0.015103240 _4_ RTR  --- 0 AODV 48 [0 ffffffff 9 800] ------- [9:255 -1:255 29 0] [0x2 2 1 [7 0] [2 4]] (REQUEST)
r 0.015103477 _2_ RTR  --- 0 AODV 48 [0 ffffffff 9 800] ------- [9:255 -1:255 29 0] [0x2 2 1 [7 0] [2 4]] (REQUEST)
r 0.016021557 _2_ RTR  --- 0 AODV 48 [0 ffffffff 4 800] ------- [4:255 -1:255 29 0] [0x2 2 1 [7 0] [2 4]] (REQUEST)
r 0.016021637 _6_ RTR  --- 0 AODV 48 [0 ffffffff 4 800] ------- [4:255 -1:255 29 0] [0x2 2 1 [7 0] [2 4]] (REQUEST)
r 0.016021817 _9_ RTR  --- 0 AODV 48 [0 ffffffff 4 800] ------- [4:255 -1:255 29 0] [0x2 2 1 [7 0] [2 4]] (REQUEST)
r 0.016022014 _3_ RTR  --- 0 AODV 48 [0 ffffffff 4 800] ------- [4:255 -1:255 29 0] [0x2 2 1 [7 0] [2 4]] (REQUEST)
s 0.016256235 _1_ RTR  --- 0 AODV 48 [0 ffffffff 2 800] ------- [1:255 -1:255 28 0] [0x2 3 1 [6 0] [3 4]] (REQUEST)
s 0.016496920 _9_ RTR  --- 0 AODV 48 [0 ffffffff 2 800] ------- [9:255 -1:255 28 0] [0x2 3 1 [6 0] [3 4]] (REQUEST)
r 0.016940033 _4_ RTR  --- 0 AODV 48 [0 ffffffff 6 800] ------- [6:255 -1:255 29 0] [0x2 2 1 [7 0] [2 4]] (REQUEST)
r 0.016940048 _9_ RTR  --- 0 AODV 48 [0 ffffffff 6 800] ------- [6:255 -1:255 29 0] [0x2 2 1 [7 0] [2 4]] (REQUEST)
r 0.016940349 _2_ RTR  --- 0 AODV 48 [0 ffffffff 6 800] ------- [6:255 -1:255 29 0] [0x2 2 1 [7 0] [2 4]] (REQUEST)
s 0.017192707 _2_ RTR  --- 0 AODV 48 [0 ffffffff 4 800] ------- [2:255 -1:255 29 0] [0x2 2 1 [5 0] [4 4]] (REQUEST)
s 0.017549435 _3_ RTR  --- 0 AODV 48 [0 ffffffff 2 800] ------- [3:255 -1:255 29 0] [0x2 2 1 [7 0] [2 4]] (REQUEST)
s 0.017767269 _9_ RTR  --- 0 AODV 48 [0 ffffffff 4 800] ------- [9:255 -1:255 29 0] [0x2 2 1 [5 0] [4 4]] (REQUEST)
s 0.018292417 _6_ RTR  --- 0 AODV 48 [0 ffffffff 4 800] ------- [6:255 -1:255 29 0] [0x2 2 1 [5 0] [4 4]] (REQUEST)
r 0.018836666 _4_ RTR  --- 0 AODV 48 [0 ffffffff 2 800] ------- [2:255 -1:255 29 0] [0x2 2 1 [5 0] [4 4]] (REQUEST)
r 0.018837061 _6_ RTR  --- 0 AODV 48 [0 ffffffff 2 800] ------- [2:255 -1:255 29 0] [0x2 2 1 [5 0] [4 4]] (REQUEST)
r 0.018837108 _3_ RTR  --- 0 AODV 48 [0 ffffffff 2 800] ------- [2:255 -1:255 29 0] [0x2 2 1 [5 0] [4 4]] (REQUEST)
r 0.018837139 _1_ RTR  --- 0 AODV 48 [0 ffffffff 2 800] ------- [2:255 -1:255 29 0] [0x2 2 1 [5 0] [4 4]] (REQUEST)
r 0.018837162 _9_ RTR  --- 0 AODV 48 [0 ffffffff 2 800] ------- [2:255 -1:255 29 0] [0x2 2 1 [5 0] [4 4]] (REQUEST)
r 0.019775929 _2_ RTR  --- 0 AODV 48 [0 ffffffff 1 800] ------- [1:255 -1:255 30 0] [0x2 1 1 [8 0] [1 4]] (REQUEST)
s 0.020029375 _3_ RTR  --- 0 AODV 48 [0 ffffffff 4 800] ------- [3:255 -1:255 29 0] [0x2 2 1 [5 0] [4 4]] (REQUEST)
s 0.020157818 _4_ RTR  --- 0 AODV 48 [0 ffffffff 3 800] ------- [4:255 -1:255 29 0] [0x2 2 1 [6 0] [3 4]] (REQUEST)
s 0.020710792 _1_ RTR  --- 0 AODV 48 [0 ffffffff 2 800] ------- [1:255 -1:255 28 0] [0x2 3 1 [5 0] [4 4]] (REQUEST)
r 0.022644889 _6_ RTR  --- 0 AODV 48 [0 ffffffff 9 800] ------- [9:255 -1:255 28 0] [0x2 3 1 [6 0] [3 4]] (REQUEST)
r 0.022645055 _4_ RTR  --- 0 AODV 48 [0 ffffffff 9 800] ------- [9:255 -1:255 28 0] [0x2 3 1 [6 0] [3 4]] (REQUEST)
r 0.022645291 _2_ RTR  --- 0 AODV 48 [0 ffffffff 9 800] ------- [9:255 -1:255 28 0] [0x2 3 1 [6 0] [3 4]] (REQUEST)
r 0.023583285 _4_ RTR  --- 0 AODV 48 [0 ffffffff 6 800] ------- [6:255 -1:255 29 0] [0x2 2 1 [5 0] [4 4]] (REQUEST)
r 0.023583300 _9_ RTR  --- 0 AODV 48 [0 ffffffff 6 800] ------- [6:255 -1:255 29 0] [0x2 2 1 [5 0] [4 4]] (REQUEST)
r 0.023583602 _2_ RTR  --- 0 AODV 48 [0 ffffffff 6 800] ------- [6:255 -1:255 29 0] [0x2 2 1 [5 0] [4 4]] (REQUEST)
r 0.024501711 _6_ RTR  --- 0 AODV 48 [0 ffffffff 9 800] ------- [9:255 -1:255 29 0] [0x2 2 1 [5 0] [4 4]] (REQUEST)
r 0.024501877 _4_ RTR  --- 0 AODV 48 [0 ffffffff 9 800] ------- [9:255 -1:255 29 0] [0x2 2 1 [5 0] [4 4]] (REQUEST)
r 0.024502114 _2_ RTR  --- 0 AODV 48 [0 ffffffff 9 800] ------- [9:255 -1:255 29 0] [0x2 2 1 [5 0] [4 4]] (REQUEST)
r 0.025460194 _2_ RTR  --- 0 AODV 48 [0 ffffffff 4 800] ------- [4:255 -1:255 29 0] [0x2 2 1 [6 0] [3 4]] (REQUEST)
r 0.025460274 _6_ RTR  --- 0 AODV 48 [0 ffffffff 4 800] ------- [4:255 -1:255 29 0] [0x2 2 1 [6 0] [3 4]] (REQUEST)
r 0.025460454 _9_ RTR  --- 0 AODV 48 [0 ffffffff 4 800] ------- [4:255 -1:255 29 0] [0x2 2 1 [6 0] [3 4]] (REQUEST)
r 0.025460651 _3_ RTR  --- 0 AODV 48 [0 ffffffff 4 800] ------- [4:255 -1:255 29 0] [0x2 2 1 [6 0] [3 4]] (REQUEST)
r 0.026398889 _8_ RTR  --- 0 AODV 48 [0 ffffffff 3 800] ------- [3:255 -1:255 29 0] [0x2 2 1 [7 0] [2 4]] (REQUEST)
r 0.027476889 _8_ RTR  --- 0 AODV 48 [0 ffffffff 3 800] ------- [3:255 -1:255 29 0] [0x2 2 1 [5 0] [4 4]] (REQUEST)
r 0.027477410 _2_ RTR  --- 0 AODV 48 [0 ffffffff 3 800] ------- [3:255 -1:255 29 0] [0x2 2 1 [5 0] [4 4]] (REQUEST)
r 0.027477425 _4_ RTR  --- 0 AODV 48 [0 ffffffff 3 800] ------- [3:255 -1:255 29 0] [0x2 2 1 [5 0] [4 4]] (REQUEST)
s 0.028968826 _8_ RTR  --- 0 AODV 48 [0 ffffffff 3 800] ------- [8:255 -1:255 28 0] [0x2 3 1 [7 0] [2 4]] (REQUEST)
s 0.029238579 _2_ RTR  --- 0 AODV 48 [0 ffffffff 1 800] ------- [2:255 -1:255 29 0] [0x2 2 1 [8 0] [1 4]] (REQUEST)
r 0.029425775 _2_ RTR  --- 0 AODV 44 [13a 2 6 800] ------- [6:255 3:255 30 2] [0x4 1 [6 4] 10.000000] (REPLY)
f 0.029425775 _2_ RTR  --- 0 AODV 44 [13a 2 6 800] ------- [6:255 3:255 29 3] [0x4 2 [6 4] 10.000000] (REPLY)
r 0.030858092 _4_ RTR  --- 0 AODV 48 [0 ffffffff 2 800] ------- [2:255 -1:255 29 0] [0x2 2 1 [8 0] [1 4]] (REQUEST)
r 0.030858487 _6_ RTR  --- 0 AODV 48 [0 ffffffff 2 800] ------- [2:255 -1:255 29 0] [0x2 2 1 [8 0] [1 4]] (REQUEST)
r 0.030858533 _3_ RTR  --- 0 AODV 48 [0 ffffffff 2 800] ------- [2:255 -1:255 29 0] [0x2 2 1 [8 0] [1 4]] (REQUEST)
r 0.030858565 _1_ RTR  --- 0 AODV 48 [0 ffffffff 2 800] ------- [2:255 -1:255 29 0] [0x2 2 1 [8 0] [1 4]] (REQUEST)
r 0.030858588 _9_ RTR  --- 0 AODV 48 [0 ffffffff 2 800] ------- [2:255 -1:255 29 0] [0x2 2 1 [8 0] [1 4]] (REQUEST)
s 0.031134062 _6_ RTR  --- 0 AODV 48 [0 ffffffff 2 800] ------- [6:255 -1:255 28 0] [0x2 3 1 [8 0] [1 4]] (REQUEST)
s 0.032720730 _9_ RTR  --- 0 AODV 48 [0 ffffffff 2 800] ------- [9:255 -1:255 28 0] [0x2 3 1 [8 0] [1 4]] (REQUEST)
s 0.032925108 _8_ RTR  --- 0 AODV 48 [0 ffffffff 3 800] ------- [8:255 -1:255 28 0] [0x2 3 1 [5 0] [4 4]] (REQUEST)
r 0.033095355 _2_ RTR  --- 0 AODV 48 [0 ffffffff 1 800] ------- [1:255 -1:255 28 0] [0x2 3 1 [5 0] [4 4]] (REQUEST)
s 0.034131703 _3_ RTR  --- 0 AODV 48 [0 ffffffff 2 800] ------- [3:255 -1:255 28 0] [0x2 3 1 [8 0] [1 4]] (REQUEST)
r 0.034377910 _3_ RTR  --- 0 AODV 48 [0 ffffffff 8 800] ------- [8:255 -1:255 29 0] [0x2 2 1 [6 0] [3 4]] (REQUEST)
r 0.034378557 _6_ RTR  --- 0 AODV 48 [0 ffffffff 9 800] ------- [9:255 -1:255 28 0] [0x2 3 1 [8 0] [1 4]] (REQUEST)
s 0.035114964 _4_ RTR  --- 0 AODV 48 [0 ffffffff 2 800] ------- [4:255 -1:255 28 0] [0x2 3 1 [8 0] [1 4]] (REQUEST)
r 0.035761942 _3_ RTR  --- 0 AODV 48 [0 ffffffff 8 800] ------- [8:255 -1:255 28 0] [0x2 3 1 [5 0] [4 4]] (REQUEST)
r 0.036780179 _8_ RTR  --- 0 AODV 48 [0 ffffffff 3 800] ------- [3:255 -1:255 28 0] [0x2 3 1 [8 0] [1 4]] (REQUEST)
s 0.036780179 _8_ RTR  --- 0 AODV 44 [0 0 0 0] ------- [8:255 1:255 30 3] [0x4 1 [8 4] 10.000000] (REPLY)
r 0.036780701 _2_ RTR  --- 0 AODV 48 [0 ffffffff 3 800] ------- [3:255 -1:255 28 0] [0x2 3 1 [8 0] [1 4]] (REQUEST)
r 0.036780716 _4_ RTR  --- 0 AODV 48 [0 ffffffff 3 800] ------- [3:255 -1:255 28 0] [0x2 3 1 [8 0] [1 4]] (REQUEST)
r 0.037719033 _2_ RTR  --- 0 AODV 48 [0 ffffffff 4 800] ------- [4:255 -1:255 28 0] [0x2 3 1 [8 0] [1 4]] (REQUEST)
r 0.037719112 _6_ RTR  --- 0 AODV 48 [0 ffffffff 4 800] ------- [4:255 -1:255 28 0] [0x2 3 1 [8 0] [1 4]] (REQUEST)
r 0.037719293 _9_ RTR  --- 0 AODV 48 [0 ffffffff 4 800] ------- [4:255 -1:255 28 0] [0x2 3 1 [8 0] [1 4]] (REQUEST)
r 0.037719490 _3_ RTR  --- 0 AODV 48 [0 ffffffff 4 800] ------- [4:255 -1:255 28 0] [0x2 3 1 [8 0] [1 4]] (REQUEST)
r 0.038717509 _4_ RTR  --- 0 AODV 48 [0 ffffffff 6 800] ------- [6:255 -1:255 28 0] [0x2 3 1 [8 0] [1 4]] (REQUEST)
r 0.038717524 _9_ RTR  --- 0 AODV 48 [0 ffffffff 6 800] ------- [6:255 -1:255 28 0] [0x2 3 1 [8 0] [1 4]] (REQUEST)
r 0.038717825 _2_ RTR  --- 0 AODV 48 [0 ffffffff 6 800] ------- [6:255 -1:255 28 0] [0x2 3 1 [8 0] [1 4]] (REQUEST)
r 0.040280567 _3_ RTR  --- 0 AODV 48 [0 ffffffff 8 800] ------- [8:255 -1:255 28 0] [0x2 3 1 [7 0] [2 4]] (REQUEST)
r 0.044634991 _3_ RTR  --- 0 AODV 44 [13a 3 8 800] ------- [8:255 1:255 30 3] [0x4 1 [8 4] 10.000000] (REPLY)
f 0.044634991 _3_ RTR  --- 0 AODV 44 [13a 3 8 800] ------- [8:255 1:255 29 2] [0x4 2 [8 4] 10.000000] (REPLY)
r 0.047637027 _3_ RTR  --- 0 AODV 44 [13a 3 2 800] ------- [6:255 3:255 29 3] [0x4 2 [6 4] 10.000000] (REPLY)
s 0.047637027 _3_ RTR  --- 3 tcp 40 [0 0 0 0] ------- [3:0 6:0 30 2] [0 0] 0 0
D 0.047637027 _3_ IFQ  ARP 0 AODV 44 [13a 3 3 800] ------- [8:255 1:255 29 2] [0x4 2 [8 4] 10.000000] (REPLY)
r 0.054863375 _2_ RTR  --- 3 tcp 40 [13a 2 3 800] ------- [3:0 6:0 30 2] [0 0] 1 0
f 0.054863375 _2_ RTR  --- 3 tcp 40 [13a 2 3 800] ------- [3:0 6:0 29 6] [0 0] 1 0
r 0.057069512 _6_ AGT  --- 3 tcp 40 [13a 6 2 800] ------- [3:0 6:0 29 6] [0 0] 2 0
s 0.057069512 _6_ AGT  --- 5 ack 40 [0 0 0 0] ------- [6:0 3:0 32 0] [0 0] 0 0
r 0.057069512 _6_ RTR  --- 5 ack 40 [0 0 0 0] ------- [6:0 3:0 32 0] [0 0] 0 0
s 0.057069512 _6_ RTR  --- 5 ack 40 [0 0 0 0] ------- [6:0 3:0 30 2] [0 0] 0 0
r 0.059195650 _2_ RTR  --- 5 ack 40 [13a 2 6 800] ------- [6:0 3:0 30 2] [0 0] 1 0
f 0.059195650 _2_ RTR  --- 5 ack 40 [13a 2 6 800] ------- [6:0 3:0 29 3] [0 0] 1 0
r 0.061361926 _3_ AGT  --- 5 ack 40 [13a 3 2 800] ------- [6:0 3:0 29 3] [0 0] 2 0
s 0.061361926 _3_ AGT  --- 6 tcp 1540 [0 0 0 0] ------- [3:0 6:0 32 0] [1 0] 0 0
r 0.061361926 _3_ RTR  --- 6 tcp 1540 [0 0 0 0] ------- [3:0 6:0 32 0] [1 0] 0 0
s 0.061361926 _3_ AGT  --- 7 tcp 1540 [0 0 0 0] ------- [3:0 6:0 32 0] [2 0] 0 0
r 0.061361926 _3_ RTR  --- 7 tcp 1540 [0 0 0 0] ------- [3:0 6:0 32 0] [2 0] 0 0
s 0.061361926 _3_ RTR  --- 6 tcp 1540 [0 0 0 0] ------- [3:0 6:0 30 2] [1 0] 0 0
s 0.061361926 _3_ RTR  --- 7 tcp 1540 [0 0 0 0] ------- [3:0 6:0 30 2] [2 0] 0 0
r 0.075768203 _2_ RTR  --- 6 tcp 1540 [13a 2 3 800] ------- [3:0 6:0 30 2] [1 0] 1 0
f 0.075768203 _2_ RTR  --- 6 tcp 1540 [13a 2 3 800] ------- [3:0 6:0 29 6] [1 0] 1 0
r 0.089755238 _2_ RTR  --- 7 tcp 1540 [13a 2 3 800] ------- [3:0 6:0 30 2] [2 0] 1 0
f 0.089755238 _2_ RTR  --- 7 tcp 1540 [13a 2 3 800] ------- [3:0 6:0 29 6] [2 0] 1 0
r 0.103601376 _6_ AGT  --- 6 tcp 1540 [13a 6 2 800] ------- [3:0 6:0 29 6] [1 0] 2 0
s 0.103601376 _6_ AGT  --- 8 ack 40 [0 0 0 0] ------- [6:0 3:0 32 0] [1 0] 0 0
r 0.103601376 _6_ RTR  --- 8 ack 40 [0 0 0 0] ------- [6:0 3:0 32 0] [1 0] 0 0
s 0.103601376 _6_ RTR  --- 8 ack 40 [0 0 0 0] ------- [6:0 3:0 30 2] [1 0] 0 0
r 0.117548226 _6_ AGT  --- 7 tcp 1540 [13a 6 2 800] ------- [3:0 6:0 29 6] [2 0] 2 0
s 0.117548226 _6_ AGT  --- 9 ack 40 [0 0 0 0] ------- [6:0 3:0 32 0] [2 0] 0 0
r 0.117548226 _6_ RTR  --- 9 ack 40 [0 0 0 0] ------- [6:0 3:0 32 0] [2 0] 0 0
s 0.117548226 _6_ RTR  --- 9 ack 40 [0 0 0 0] ------- [6:0 3:0 30 2] [2 0] 0 0
r 0.119654363 _2_ RTR  --- 8 ack 40 [13a 2 6 800] ------- [6:0 3:0 30 2] [1 0] 1 0
f 0.119654363 _2_ RTR  --- 8 ack 40 [13a 2 6 800] ------- [6:0 3:0 29 3] [1 0] 1 0
r 0.121481213 _2_ RTR  --- 9 ack 40 [13a 2 6 800] ------- [6:0 3:0 30 2] [2 0] 1 0
f 0.121481213 _2_ RTR  --- 9 ack 40 [13a 2 6 800] ------- [6:0 3:0 29 3] [2 0] 1 0
r 0.123527490 _3_ AGT  --- 8 ack 40 [13a 3 2 800] ------- [6:0 3:0 29 3] [1 0] 2 0
s 0.123527490 _3_ AGT  --- 10 tcp 1540 [0 0 0 0] ------- [3:0 6:0 32 0] [3 0] 0 0
r 0.123527490 _3_ RTR  --- 10 tcp 1540 [0 0 0 0] ------- [3:0 6:0 32 0] [3 0] 0 0
s 0.123527490 _3_ AGT  --- 11 tcp 1540 [0 0 0 0] ------- [3:0 6:0 32 0] [4 0] 0 0
r 0.123527490 _3_ RTR  --- 11 tcp 1540 [0 0 0 0] ------- [3:0 6:0 32 0] [4 0] 0 0
s 0.123527490 _3_ RTR  --- 10 tcp 1540 [0 0 0 0] ------- [3:0 6:0 30 2] [3 0] 0 0
s 0.123527490 _3_ RTR  --- 11 tcp 1540 [0 0 0 0] ------- [3:0 6:0 30 2] [4 0] 0 0
r 0.137613766 _2_ RTR  --- 10 tcp 1540 [13a 2 3 800] ------- [3:0 6:0 30 2] [3 0] 1 0
f 0.137613766 _2_ RTR  --- 10 tcp 1540 [13a 2 3 800] ------- [3:0 6:0 29 6] [3 0] 1 0
r 0.139540043 _3_ AGT  --- 9 ack 40 [13a 3 2 800] ------- [6:0 3:0 29 3] [2 0] 2 0
s 0.139540043 _3_ AGT  --- 12 tcp 1540 [0 0 0 0] ------- [3:0 6:0 32 0] [5 0] 0 0
r 0.139540043 _3_ RTR  --- 12 tcp 1540 [0 0 0 0] ------- [3:0 6:0 32 0] [5 0] 0 0
s 0.139540043 _3_ AGT  --- 13 tcp 1540 [0 0 0 0] ------- [3:0 6:0 32 0] [6 0] 0 0
r 0.139540043 _3_ RTR  --- 13 tcp 1540 [0 0 0 0] ------- [3:0 6:0 32 0] [6 0] 0 0
s 0.139540043 _3_ RTR  --- 12 tcp 1540 [0 0 0 0] ------- [3:0 6:0 30 2] [5 0] 0 0
s 0.139540043 _3_ RTR  --- 13 tcp 1540 [0 0 0 0] ------- [3:0 6:0 30 2] [6 0] 0 0
r 0.153586320 _2_ RTR  --- 11 tcp 1540 [13a 2 3 800] ------- [3:0 6:0 30 2] [4 0] 1 0
f 0.153586320 _2_ RTR  --- 11 tcp 1540 [13a 2 3 800] ------- [3:0 6:0 29 6] [4 0] 1 0
r 0.167632457 _6_ AGT  --- 10 tcp 1540 [13a 6 2 800] ------- [3:0 6:0 29 6] [3 0] 2 0
s 0.167632457 _6_ AGT  --- 14 ack 40 [0 0 0 0] ------- [6:0 3:0 32 0] [3 0] 0 0
r 0.167632457 _6_ RTR  --- 14 ack 40 [0 0 0 0] ------- [6:0 3:0 32 0] [3 0] 0 0
s 0.167632457 _6_ RTR  --- 14 ack 40 [0 0 0 0] ------- [6:0 3:0 30 2] [3 0] 0 0
r 0.181619307 _6_ AGT  --- 11 tcp 1540 [13a 6 2 800] ------- [3:0 6:0 29 6] [4 0] 2 0
s 0.181619307 _6_ AGT  --- 15 ack 40 [0 0 0 0] ------- [6:0 3:0 32 0] [4 0] 0 0
r 0.181619307 _6_ RTR  --- 15 ack 40 [0 0 0 0] ------- [6:0 3:0 32 0] [4 0] 0 0
s 0.181619307 _6_ RTR  --- 15 ack 40 [0 0 0 0] ------- [6:0 3:0 30 2] [4 0] 0 0
r 0.183605444 _2_ RTR  --- 14 ack 40 [13a 2 6 800] ------- [6:0 3:0 30 2] [3 0] 1 0
f 0.183605444 _2_ RTR  --- 14 ack 40 [13a 2 6 800] ------- [6:0 3:0 29 3] [3 0] 1 0
r 0.185532294 _2_ RTR  --- 15 ack 40 [13a 2 6 800] ------- [6:0 3:0 30 2] [4 0] 1 0
f 0.185532294 _2_ RTR  --- 15 ack 40 [13a 2 6 800] ------- [6:0 3:0 29 3] [4 0] 1 0
r 0.187518571 _3_ AGT  --- 14 ack 40 [13a 3 2 800] ------- [6:0 3:0 29 3] [3 0] 2 0
s 0.187518571 _3_ AGT  --- 16 tcp 1540 [0 0 0 0] ------- [3:0 6:0 32 0] [7 0] 0 0
r 0.187518571 _3_ RTR  --- 16 tcp 1540 [0 0 0 0] ------- [3:0 6:0 32 0] [7 0] 0 0
s 0.187518571 _3_ AGT  --- 17 tcp 1540 [0 0 0 0] ------- [3:0 6:0 32 0] [8 0] 0 0
r 0.187518571 _3_ RTR  --- 17 tcp 1540 [0 0 0 0] ------- [3:0 6:0 32 0] [8 0] 0 0
s 0.187518571 _3_ RTR  --- 16 tcp 1540 [0 0 0 0] ------- [3:0 6:0 30 2] [7 0] 0 0
s 0.187518571 _3_ RTR  --- 17 tcp 1540 [0 0 0 0] ------- [3:0 6:0 30 2] [8 0] 0 0
r 0.189405607 _3_ AGT  --- 15 ack 40 [13a 3 2 800] ------- [6:0 3:0 29 3] [4 0] 2 0
s 0.189405607 _3_ AGT  --- 18 tcp 1540 [0 0 0 0] ------- [3:0 6:0 32 0] [9 0] 0 0
r 0.189405607 _3_ RTR  --- 18 tcp 1540 [0 0 0 0] ------- [3:0 6:0 32 0] [9 0] 0 0
s 0.189405607 _3_ AGT  --- 19 tcp 1540 [0 0 0 0] ------- [3:0 6:0 32 0] [10 0] 0 0
r 0.189405607 _3_ RTR  --- 19 tcp 1540 [0 0 0 0] ------- [3:0 6:0 32 0] [10 0] 0 0
s 0.189405607 _3_ RTR  --- 18 tcp 1540 [0 0 0 0] ------- [3:0 6:0 30 2] [9 0] 0 0
s 0.189405607 _3_ RTR  --- 19 tcp 1540 [0 0 0 0] ------- [3:0 6:0 30 2] [10 0] 0 0
r 0.203331883 _2_ RTR  --- 12 tcp 1540 [13a 2 3 800] ------- [3:0 6:0 30 2] [5 0] 1 0
f 0.203331883 _2_ RTR  --- 12 tcp 1540 [13a 2 3 800] ------- [3:0 6:0 29 6] [5 0] 1 0
r 0.217578021 _6_ AGT  --- 12 tcp 1540 [13a 6 2 800] ------- [3:0 6:0 29 6] [5 0] 2 0
s 0.217578021 _6_ AGT  --- 20 ack 40 [0 0 0 0] ------- [6:0 3:0 32 0] [5 0] 0 0
r 0.217578021 _6_ RTR  --- 20 ack 40 [0 0 0 0] ------- [6:0 3:0 32 0] [5 0] 0 0
s 0.217578021 _6_ RTR  --- 20 ack 40 [0 0 0 0] ------- [6:0 3:0 30 2] [5 0] 0 0
r 0.219824158 _2_ RTR  --- 20 ack 40 [13a 2 6 800] ------- [6:0 3:0 30 2] [5 0] 1 0
f 0.219824158 _2_ RTR  --- 20 ack 40 [13a 2 6 800] ------- [6:0 3:0 29 3] [5 0] 1 0
r 0.221670435 _3_ AGT  --- 20 ack 40 [13a 3 2 800] ------- [6:0 3:0 29 3] [5 0] 2 0
s 0.221670435 _3_ AGT  --- 21 tcp 1540 [0 0 0 0] ------- [3:0 6:0 32 0] [11 0] 0 0
r 0.221670435 _3_ RTR  --- 21 tcp 1540 [0 0 0 0] ------- [3:0 6:0 32 0] [11 0] 0 0
s 0.221670435 _3_ AGT  --- 22 tcp 1540 [0 0 0 0] ------- [3:0 6:0 32 0] [12 0] 0 0
r 0.221670435 _3_ RTR  --- 22 tcp 1540 [0 0 0 0] ------- [3:0 6:0 32 0] [12 0] 0 0
s 0.221670435 _3_ RTR  --- 21 tcp 1540 [0 0 0 0] ------- [3:0 6:0 30 2] [11 0] 0 0
s 0.221670435 _3_ RTR  --- 22 tcp 1540 [0 0 0 0] ------- [3:0 6:0 30 2] [12 0] 0 0
r 0.235636711 _2_ RTR  --- 13 tcp 1540 [13a 2 3 800] ------- [3:0 6:0 30 2] [6 0] 1 0
f 0.235636711 _2_ RTR  --- 13 tcp 1540 [13a 2 3 800] ------- [3:0 6:0 29 6] [6 0] 1 0
r 0.249483747 _2_ RTR  --- 16 tcp 1540 [13a 2 3 800] ------- [3:0 6:0 30 2] [7 0] 1 0
f 0.249483747 _2_ RTR  --- 16 tcp 1540 [13a 2 3 800] ------- [3:0 6:0 29 6] [7 0] 1 0
r 0.263330783 _2_ RTR  --- 17 tcp 1540 [13a 2 3 800] ------- [3:0 6:0 30 2] [8 0] 1 0
f 0.263330783 _2_ RTR  --- 17 tcp 1540 [13a 2 3 800] ------- [3:0 6:0 29 6] [8 0] 1 0
r 0.277236920 _6_ AGT  --- 13 tcp 1540 [13a 6 2 800] ------- [3:0 6:0 29 6] [6 0] 2 0
s 0.277236920 _6_ AGT  --- 23 ack 40 [0 0 0 0] ------- [6:0 3:0 32 0] [6 0] 0 0
r 0.277236920 _6_ RTR  --- 23 ack 40 [0 0 0 0] ------- [6:0 3:0 32 0] [6 0] 0 0
s 0.277236920 _6_ RTR  --- 23 ack 40 [0 0 0 0] ------- [6:0 3:0 30 2] [6 0] 0 0
r 0.279103057 _2_ RTR  --- 23 ack 40 [13a 2 6 800] ------- [6:0 3:0 30 2] [6 0] 1 0
f 0.279103057 _2_ RTR  --- 23 ack 40 [13a 2 6 800] ------- [6:0 3:0 29 3] [6 0] 1 0
r 0.293279608 _2_ RTR  --- 18 tcp 1540 [13a 2 3 800] ------- [3:0 6:0 30 2] [9 0] 1 0
f 0.293279608 _2_ RTR  --- 18 tcp 1540 [13a 2 3 800] ------- [3:0 6:0 29 6] [9 0] 1 0
r 0.307185745 _6_ AGT  --- 16 tcp 1540 [13a 6 2 800] ------- [3:0 6:0 29 6] [7 0] 2 0
s 0.307185745 _6_ AGT  --- 24 ack 40 [0 0 0 0] ------- [6:0 3:0 32 0] [7 0] 0 0
r 0.307185745 _6_ RTR  --- 24 ack 40 [0 0 0 0] ------- [6:0 3:0 32 0] [7 0] 0 0
s 0.307185745 _6_ RTR  --- 24 ack 40 [0 0 0 0] ------- [6:0 3:0 30 2] [7 0] 0 0
r 0.309031882 _2_ RTR  --- 24 ack 40 [13a 2 6 800] ------- [6:0 3:0 30 2] [7 0] 1 0
f 0.309031882 _2_ RTR  --- 24 ack 40 [13a 2 6 800] ------- [6:0 3:0 29 3] [7 0] 1 0
r 0.323158020 _6_ AGT  --- 17 tcp 1540 [13a 6 2 800] ------- [3:0 6:0 29 6] [8 0] 2 0
s 0.323158020 _6_ AGT  --- 25 ack 40 [0 0 0 0] ------- [6:0 3:0 32 0] [8 0] 0 0
r 0.323158020 _6_ RTR  --- 25 ack 40 [0 0 0 0] ------- [6:0 3:0 32 0] [8 0] 0 0
s 0.323158020 _6_ RTR  --- 25 ack 40 [0 0 0 0] ------- [6:0 3:0 30 2] [8 0] 0 0
r 0.325165009 _3_ AGT  --- 23 ack 40 [13a 3 2 800] ------- [6:0 3:0 29 3] [6 0] 2 0
s 0.325165009 _3_ AGT  --- 26 tcp 1540 [0 0 0 0] ------- [3:0 6:0 32 0] [13 0] 0 0
r 0.325165009 _3_ RTR  --- 26 tcp 1540 [0 0 0 0] ------- [3:0 6:0 32 0] [13 0] 0 0
s 0.325165009 _3_ AGT  --- 27 tcp 1540 [0 0 0 0] ------- [3:0 6:0 32 0] [14 0] 0 0
r 0.325165009 _3_ RTR  --- 27 tcp 1540 [0 0 0 0] ------- [3:0 6:0 32 0] [14 0] 0 0
s 0.325165009 _3_ RTR  --- 26 tcp 1540 [0 0 0 0] ------- [3:0 6:0 30 2] [13 0] 0 0
s 0.325165009 _3_ RTR  --- 27 tcp 1540 [0 0 0 0] ------- [3:0 6:0 30 2] [14 0] 0 0
r 0.339131905 _6_ AGT  --- 18 tcp 1540 [13a 6 2 800] ------- [3:0 6:0 29 6] [9 0] 2 0
s 0.339131905 _6_ AGT  --- 28 ack 40 [0 0 0 0] ------- [6:0 3:0 32 0] [9 0] 0 0
r 0.339131905 _6_ RTR  --- 28 ack 40 [0 0 0 0] ------- [6:0 3:0 32 0] [9 0] 0 0
s 0.339131905 _6_ RTR  --- 28 ack 40 [0 0 0 0] ------- [6:0 3:0 30 2] [9 0] 0 0
r 0.341198894 _3_ AGT  --- 24 ack 40 [13a 3 2 800] ------- [6:0 3:0 29 3] [7 0] 2 0
s 0.341198894 _3_ AGT  --- 29 tcp 1540 [0 0 0 0] ------- [3:0 6:0 32 0] [15 0] 0 0
r 0.341198894 _3_ RTR  --- 29 tcp 1540 [0 0 0 0] ------- [3:0 6:0 32 0] [15 0] 0 0
s 0.341198894 _3_ AGT  --- 30 tcp 1540 [0 0 0 0] ------- [3:0 6:0 32 0] [16 0] 0 0
r 0.341198894 _3_ RTR  --- 30 tcp 1540 [0 0 0 0] ------- [3:0 6:0 32 0] [16 0] 0 0
s 0.341198894 _3_ RTR  --- 29 tcp 1540 [0 0 0 0] ------- [3:0 6:0 30 2] [15 0] 0 0
s 0.341198894 _3_ RTR  --- 30 tcp 1540 [0 0 0 0] ------- [3:0 6:0 30 2] [16 0] 0 0
r 0.355045171 _2_ RTR  --- 19 tcp 1540 [13a 2 3 800] ------- [3:0 6:0 30 2] [10 0] 1 0
f 0.355045171 _2_ RTR  --- 19 tcp 1540 [13a 2 3 800] ------- [3:0 6:0 29 6] [10 0] 1 0
r 0.368872207 _2_ RTR  --- 21 tcp 1540 [13a 2 3 800] ------- [3:0 6:0 30 2] [11 0] 1 0
f 0.368872207 _2_ RTR  --- 21 tcp 1540 [13a 2 3 800] ------- [3:0 6:0 29 6] [11 0] 1 0
r 0.382798344 _6_ AGT  --- 19 tcp 1540 [13a 6 2 800] ------- [3:0 6:0 29 6] [10 0] 2 0
s 0.382798344 _6_ AGT  --- 31 ack 40 [0 0 0 0] ------- [6:0 3:0 32 0] [10 0] 0 0
r 0.382798344 _6_ RTR  --- 31 ack 40 [0 0 0 0] ------- [6:0 3:0 32 0] [10 0] 0 0
s 0.382798344 _6_ RTR  --- 31 ack 40 [0 0 0 0] ------- [6:0 3:0 30 2] [10 0] 0 0
r 0.384704482 _2_ RTR  --- 25 ack 40 [13a 2 6 800] ------- [6:0 3:0 30 2] [8 0] 1 0
f 0.384704482 _2_ RTR  --- 25 ack 40 [13a 2 6 800] ------- [6:0 3:0 29 3] [8 0] 1 0
r 0.399010619 _6_ AGT  --- 21 tcp 1540 [13a 6 2 800] ------- [3:0 6:0 29 6] [11 0] 2 0
s 0.399010619 _6_ AGT  --- 32 ack 40 [0 0 0 0] ------- [6:0 3:0 32 0] [11 0] 0 0
r 0.399010619 _6_ RTR  --- 32 ack 40 [0 0 0 0] ------- [6:0 3:0 32 0] [11 0] 0 0
s 0.399010619 _6_ RTR  --- 32 ack 40 [0 0 0 0] ------- [6:0 3:0 30 2] [11 0] 0 0
r 0.400956756 _2_ RTR  --- 28 ack 40 [13a 2 6 800] ------- [6:0 3:0 30 2] [9 0] 1 0
f 0.400956756 _2_ RTR  --- 28 ack 40 [13a 2 6 800] ------- [6:0 3:0 29 3] [9 0] 1 0
r 0.414873307 _2_ RTR  --- 22 tcp 1540 [13a 2 3 800] ------- [3:0 6:0 30 2] [12 0] 1 0
f 0.414873307 _2_ RTR  --- 22 tcp 1540 [13a 2 3 800] ------- [3:0 6:0 29 6] [12 0] 1 0
r 0.416889671 _2_ RTR  --- 31 ack 40 [13a 2 6 800] ------- [6:0 3:0 30 2] [10 0] 1 0
f 0.416889671 _2_ RTR  --- 31 ack 40 [13a 2 6 800] ------- [6:0 3:0 29 3] [10 0] 1 0
r 0.418856521 _2_ RTR  --- 32 ack 40 [13a 2 6 800] ------- [6:0 3:0 30 2] [11 0] 1 0
f 0.418856521 _2_ RTR  --- 32 ack 40 [13a 2 6 800] ------- [6:0 3:0 29 3] [11 0] 1 0
r 0.420742798 _3_ AGT  --- 25 ack 40 [13a 3 2 800] ------- [6:0 3:0 29 3] [8 0] 2 0
s 0.420742798 _3_ AGT  --- 33 tcp 1540 [0 0 0 0] ------- [3:0 6:0 32 0] [17 0] 0 0
r 0.420742798 _3_ RTR  --- 33 tcp 1540 [0 0 0 0] ------- [3:0 6:0 32 0] [17 0] 0 0
s 0.420742798 _3_ AGT  --- 34 tcp 1540 [0 0 0 0] ------- [3:0 6:0 32 0] [18 0] 0 0
r 0.420742798 _3_ RTR  --- 34 tcp 1540 [0 0 0 0] ------- [3:0 6:0 32 0] [18 0] 0 0
s 0.420742798 _3_ RTR  --- 33 tcp 1540 [0 0 0 0] ------- [3:0 6:0 30 2] [17 0] 0 0
s 0.420742798 _3_ RTR  --- 34 tcp 1540 [0 0 0 0] ------- [3:0 6:0 30 2] [18 0] 0 0
r 0.434829074 _2_ RTR  --- 26 tcp 1540 [13a 2 3 800] ------- [3:0 6:0 30 2] [13 0] 1 0
f 0.434829074 _2_ RTR  --- 26 tcp 1540 [13a 2 3 800] ------- [3:0 6:0 29 6] [13 0] 1 0
r 0.448756110 _2_ RTR  --- 27 tcp 1540 [13a 2 3 800] ------- [3:0 6:0 30 2] [14 0] 1 0
f 0.448756110 _2_ RTR  --- 27 tcp 1540 [13a 2 3 800] ------- [3:0 6:0 29 6] [14 0] 1 0
r 0.464449145 _2_ RTR  --- 29 tcp 1540 [13a 2 3 800] ------- [3:0 6:0 30 2] [15 0] 1 0
f 0.464449145 _2_ RTR  --- 29 tcp 1540 [13a 2 3 800] ------- [3:0 6:0 29 6] [15 0] 1 0
r 0.466515422 _3_ AGT  --- 28 ack 40 [13a 3 2 800] ------- [6:0 3:0 29 3] [9 0] 2 0
s 0.466515422 _3_ AGT  --- 35 tcp 1540 [0 0 0 0] ------- [3:0 6:0 32 0] [19 0] 0 0
r 0.466515422 _3_ RTR  --- 35 tcp 1540 [0 0 0 0] ------- [3:0 6:0 32 0] [19 0] 0 0
s 0.466515422 _3_ AGT  --- 36 tcp 1540 [0 0 0 0] ------- [3:0 6:0 32 0] [20 0] 0 0
r 0.466515422 _3_ RTR  --- 36 tcp 1540 [0 0 0 0] ------- [3:0 6:0 32 0] [20 0] 0 0
s 0.466515422 _3_ RTR  --- 35 tcp 1540 [0 0 0 0] ------- [3:0 6:0 30 2] [19 0] 0 0
s 0.466515422 _3_ RTR  --- 36 tcp 1540 [0 0 0 0] ------- [3:0 6:0 30 2] [20 0] 0 0
r 0.480582318 _6_ AGT  --- 22 tcp 1540 [13a 6 2 800] ------- [3:0 6:0 29 6] [12 0] 2 0
s 0.480582318 _6_ AGT  --- 37 ack 40 [0 0 0 0] ------- [6:0 3:0 32 0] [12 0] 0 0
r 0.480582318 _6_ RTR  --- 37 ack 40 [0 0 0 0] ------- [6:0 3:0 32 0] [12 0] 0 0
s 0.480582318 _6_ RTR  --- 37 ack 40 [0 0 0 0] ------- [6:0 3:0 30 2] [12 0] 0 0
r 0.482408456 _2_ RTR  --- 37 ack 40 [13a 2 6 800] ------- [6:0 3:0 30 2] [12 0] 1 0
f 0.482408456 _2_ RTR  --- 37 ack 40 [13a 2 6 800] ------- [6:0 3:0 29 3] [12 0] 1 0
r 0.496305006 _2_ RTR  --- 30 tcp 1540 [13a 2 3 800] ------- [3:0 6:0 30 2] [16 0] 1 0
f 0.496305006 _2_ RTR  --- 30 tcp 1540 [13a 2 3 800] ------- [3:0 6:0 29 6] [16 0] 1 0
r 0.498191283 _3_ AGT  --- 31 ack 40 [13a 3 2 800] ------- [6:0 3:0 29 3] [10 0] 2 0
s 0.498191283 _3_ AGT  --- 38 tcp 1540 [0 0 0 0] ------- [3:0 6:0 32 0] [21 0] 0 0
r 0.498191283 _3_ RTR  --- 38 tcp 1540 [0 0 0 0] ------- [3:0 6:0 32 0] [21 0] 0 0
s 0.498191283 _3_ AGT  --- 39 tcp 1540 [0 0 0 0] ------- [3:0 6:0 32 0] [22 0] 0 0
r 0.498191283 _3_ RTR  --- 39 tcp 1540 [0 0 0 0] ------- [3:0 6:0 32 0] [22 0] 0 0
s 0.498191283 _3_ RTR  --- 38 tcp 1540 [0 0 0 0] ------- [3:0 6:0 30 2] [21 0] 0 0
s 0.498191283 _3_ RTR  --- 39 tcp 1540 [0 0 0 0] ------- [3:0 6:0 30 2] [22 0] 0 0
r 0.512117559 _2_ RTR  --- 33 tcp 1540 [13a 2 3 800] ------- [3:0 6:0 30 2] [17 0] 1 0
f 0.512117559 _2_ RTR  --- 33 tcp 1540 [13a 2 3 800] ------- [3:0 6:0 29 6] [17 0] 1 0
r 0.514363836 _3_ AGT  --- 32 ack 40 [13a 3 2 800] ------- [6:0 3:0 29 3] [11 0] 2 0
s 0.514363836 _3_ AGT  --- 40 tcp 1540 [0 0 0 0] ------- [3:0 6:0 32 0] [23 0] 0 0
r 0.514363836 _3_ RTR  --- 40 tcp 1540 [0 0 0 0] ------- [3:0 6:0 32 0] [23 0] 0 0
s 0.514363836 _3_ AGT  --- 41 tcp 1540 [0 0 0 0] ------- [3:0 6:0 32 0] [24 0] 0 0
r 0.514363836 _3_ RTR  --- 41 tcp 1540 [0 0 0 0] ------- [3:0 6:0 32 0] [24 0] 0 0
s 0.514363836 _3_ RTR  --- 40 tcp 1540 [0 0 0 0] ------- [3:0 6:0 30 2] [23 0] 0 0
s 0.514363836 _3_ RTR  --- 41 tcp 1540 [0 0 0 0] ------- [3:0 6:0 30 2] [24 0] 0 0
r 0.528330732 _6_ AGT  --- 26 tcp 1540 [13a 6 2 800] ------- [3:0 6:0 29 6] [13 0] 2 0
s 0.528330732 _6_ AGT  --- 42 ack 40 [0 0 0 0] ------- [6:0 3:0 32 0] [13 0] 0 0
r 0.528330732 _6_ RTR  --- 42 ack 40 [0 0 0 0] ------- [6:0 3:0 32 0] [13 0] 0 0
s 0.528330732 _6_ RTR  --- 42 ack 40 [0 0 0 0] ------- [6:0 3:0 30 2] [13 0] 0 0
r 0.542581995 _2_ RTR  --- 34 tcp 1540 [13a 2 3 800] ------- [3:0 6:0 30 2] [18 0] 1 0
f 0.542581995 _2_ RTR  --- 34 tcp 1540 [13a 2 3 800] ------- [3:0 6:0 29 6] [18 0] 1 0
r 0.556449031 _2_ RTR  --- 35 tcp 1540 [13a 2 3 800] ------- [3:0 6:0 30 2] [19 0] 1 0
f 0.556449031 _2_ RTR  --- 35 tcp 1540 [13a 2 3 800] ------- [3:0 6:0 29 6] [19 0] 1 0
r 0.570355168 _6_ AGT  --- 27 tcp 1540 [13a 6 2 800] ------- [3:0 6:0 29 6] [14 0] 2 0