n -t * -s 0  -x 986 -y 784 -Z 0 -z 25  -v circle -c black
n -t * -s 1  -x 367 -y 213 -Z 0 -z 25  -v circle -c black
n -t * -s 2  -x 750 -y 567 -Z 0 -z 25  -v circle -c black
n -t * -s 3  -x 696 -y 912 -Z 0 -z 25  -v circle -c black
n -t * -s 4  -x 824 -y 940 -Z 0 -z 25  -v circle -c black
n -t * -s 5  -x 212 -y 852 -Z 0 -z 25  -v circle -c black
n -t * -s 6  -x 349 -y 795 -Z 0 -z 25  -v circle -c black
n -t * -s 7  -x 387 -y 956 -Z 0 -z 25  -v circle -c black
n -t * -s 8  -x 740 -y 387 -Z 0 -z 25  -v circle -c black
n -t * -s 9  -x 628 -y 857 -Z 0 -z 25  -v circle -c black
V -t * -v 1.0a5 -a 0
W -t * -x 1000 -y 1000
A -t * -n 1 -p 0 -o 0x7fffffff -c 30 -a 1
A -t * -h 1 -m 1073741823 -s 0
+ -t 0.010000000 -s 0 -d -1 -p tcp -e 40 -c 2 -a 0 -i 0 -k AGT 
- -t 0.010000000 -s 0 -d -1 -p tcp -e 40 -c 2 -a 0 -i 0 -k AGT
h -t 0.010000000 -s 0 -d -1 -p tcp -e 40 -c 2 -a 0 -i 0 -k AGT
+ -t 0.010000000 -s 1 -d -1 -p tcp -e 40 -c 2 -a 0 -i 1 -k AGT 
- -t 0.010000000 -s 1 -d -1 -p tcp -e 40 -c 2 -a 0 -i 1 -k AGT
h -t 0.010000000 -s 1 -d -1 -p tcp -e 40 -c 2 -a 0 -i 1 -k AGT
+ -t 0.010000000 -s 2 -d -1 -p tcp -e 40 -c 2 -a 0 -i 2 -k AGT 
- -t 0.010000000 -s 2 -d -1 -p tcp -e 40 -c 2 -a 0 -i 2 -k AGT
h -t 0.010000000 -s 2 -d -1 -p tcp -e 40 -c 2 -a 0 -i 2 -k AGT
+ -t 0.010000000 -s 3 -d -1 -p tcp -e 40 -c 2 -a 0 -i 3 -k AGT 
- -t 0.010000000 -s 3 -d -1 -p tcp -e 40 -c 2 -a 0 -i 3 -k AGT
h -t 0.010000000 -s 3 -d -1 -p tcp -e 40 -c 2 -a 0 -i 3 -k AGT
+ -t 0.010000000 -s 4 -d -1 -p tcp -e 40 -c 2 -a 0 -i 4 -k AGT 
- -t 0.010000000 -s 4 -d -1 -p tcp -e 40 -c 2 -a 0 -i 4 -k AGT
h -t 0.010000000 -s 4 -d -1 -p tcp -e 40 -c 2 -a 0 -i 4 -k AGT
+ -t 0.010000000 -s 0 -d -1 -p AODV -e 48 -c 2 -a 0 -i 0 -k RTR 
- -t 0.010000000 -s 0 -d -1 -p AODV -e 48 -c 2 -a 0 -i 0 -k RTR
h -t 0.010000000 -s 0 -d -1 -p AODV -e 48 -c 2 -a 0 -i 0 -k RTR
+ -t 0.010000000 -s 1 -d -1 -p AODV -e 48 -c 2 -a 0 -i 0 -k RTR 
- -t 0.010000000 -s 1 -d -1 -p AODV -e 48 -c 2 -a 0 -i 0 -k RTR
h -t 0.010000000 -s 1 -d -1 -p AODV -e 48 -c 2 -a 0 -i 0 -k RTR
+ -t 0.010000000 -s 2 -d -1 -p AODV -e 48 -c 2 -a 0 -i 0 -k RTR 
- -t 0.010000000 -s 2 -d -1 -p AODV -e 48 -c 2 -a 0 -i 0 -k RTR
h -t 0.010000000 -s 2 -d -1 -p AODV -e 48 -c 2 -a 0 -i 0 -k RTR
+ -t 0.010000000 -s 3 -d -1 -p AODV -e 48 -c 2 -a 0 -i 0 -k RTR 
- -t 0.010000000 -s 3 -d -1 -p AODV -e 48 -c 2 -a 0 -i 0 -k RTR
h -t 0.010000000 -s 3 -d -1 -p AODV -e 48 -c 2 -a 0 -i 0 -k RTR
+ -t 0.010000000 -s 4 -d -1 -p AODV -e 48 -c 2 -a 0 -i 0 -k RTR 
- -t 0.010000000 -s 4 -d -1 -p AODV -e 48 -c 2 -a 0 -i 0 -k RTR
h -t 0.010000000 -s 4 -d -1 -p AODV -e 48 -c 2 -a 0 -i 0 -k RTR
r -t 0.010948750 -s 4 -d -1 -p AODV -e 48 -c 2 -a 0 -i 0 -k RTR
r -t 0.012207186 -s 3 -d -1 -p AODV -e 48 -c 2 -a 0 -i 0 -k RTR
r -t 0.012207459 -s 9 -d -1 -p AODV -e 48 -c 2 -a 0 -i 0 -k RTR
r -t 0.012207499 -s 0 -d -1 -p AODV -e 48 -c 2 -a 0 -i 0 -k RTR
r -t 0.013345478 -s 9 -d -1 -p AODV -e 48 -c 2 -a 0 -i 0 -k RTR
+ -t 0.013345542 -s 9 -d -1 -p AODV -e 48 -c 2 -a 0 -i 0 -k RTR 
- -t 0.013345542 -s 9 -d -1 -p AODV -e 48 -c 2 -a 0 -i 0 -k RTR
h -t 0.013345542 -s 9 -d -1 -p AODV -e 48 -c 2 -a 0 -i 0 -k RTR
r -t 0.013345623 -s 4 -d -1 -p AODV -e 48 -c 2 -a 0 -i 0 -k RTR
+ -t 0.014287012 -s 4 -d -1 -p AODV -e 48 -c 2 -a 0 -i 0 -k RTR 
- -t 0.014287012 -s 4 -d -1 -p AODV -e 48 -c 2 -a 0 -i 0 -k RTR
h -t 0.014287012 -s 4 -d -1 -p AODV -e 48 -c 2 -a 0 -i 0 -k RTR
r -t 0.014613833 -s 3 -d -1 -p AODV -e 48 -c 2 -a 0 -i 0 -k RTR
r -t 0.014614251 -s 4 -d -1 -p AODV -e 48 -c 2 -a 0 -i 0 -k RTR
+ -t 0.015093530 -s 9 -d -1 -p AODV -e 48 -c 2 -a 0 -i 0 -k RTR 
- -t 0.015093530 -s 9 -d -1 -p AODV -e 48 -c 2 -a 0 -i 0 -k RTR
h -t 0.015093530 -s 9 -d -1 -p AODV -e 48 -c 2 -a 0 -i 0 -k RTR
r -t 0.015712688 -s 3 -d -1 -p AODV -e 48 -c 2 -a 0 -i 0 -k RTR
r -t 0.015712961 -s 9 -d -1 -p AODV -e 48 -c 2 -a 0 -i 0 -k RTR
r -t 0.015713001 -s 0 -d -1 -p AODV -e 48 -c 2 -a 0 -i 0 -k RTR
r -t 0.016631252 -s 3 -d -1 -p AODV -e 48 -c 2 -a 0 -i 0 -k RTR
r -t 0.016631670 -s 4 -d -1 -p AODV -e 48 -c 2 -a 0 -i 0 -k RTR
r -t 0.018094610 -s 8 -d -1 -p AODV -e 48 -c 2 -a 0 -i 0 -k RTR
+ -t 0.018607863 -s 3 -d -1 -p AODV -e 48 -c 2 -a 0 -i 0 -k RTR 
- -t 0.018607863 -s 3 -d -1 -p AODV -e 48 -c 2 -a 0 -i 0 -k RTR
h -t 0.018607863 -s 3 -d -1 -p AODV -e 48 -c 2 -a 0 -i 0 -k RTR
+ -t 0.019311985 -s 4 -d -1 -p AODV -e 48 -c 2 -a 0 -i 0 -k RTR 
- -t 0.019311985 -s 4 -d -1 -p AODV -e 48 -c 2 -a 0 -i 0 -k RTR
h -t 0.019311985 -s 4 -d -1 -p AODV -e 48 -c 2 -a 0 -i 0 -k RTR
r -t 0.019956155 -s 9 -d -1 -p AODV -e 48 -c 2 -a 0 -i 0 -k RTR
r -t 0.019956300 -s 4 -d -1 -p AODV -e 48 -c 2 -a 0 -i 0 -k RTR
+ -t 0.020804776 -s 0 -d -1 -p AODV -e 48 -c 2 -a 0 -i 0 -k RTR 
- -t 0.020804776 -s 0 -d -1 -p AODV -e 48 -c 2 -a 0 -i 0 -k RTR
h -t 0.020804776 -s 0 -d -1 -p AODV -e 48 -c 2 -a 0 -i 0 -k RTR
+ -t 0.020899489 -s 0 -d -1 -p AODV -e 48 -c 2 -a 0 -i 0 -k RTR 
- -t 0.020899489 -s 0 -d -1 -p AODV -e 48 -c 2 -a 0 -i 0 -k RTR
h -t 0.020899489 -s 0 -d -1 -p AODV -e 48 -c 2 -a 0 -i 0 -k RTR
r -t 0.021394737 -s 3 -d -1 -p AODV -e 48 -c 2 -a 0 -i 0 -k RTR
r -t 0.021395009 -s 9 -d -1 -p AODV -e 48 -c 2 -a 0 -i 0 -k RTR
+ -t 0.021395009 -s 9 -d 4 -p AODV -e 44 -c 2 -a 0 -i 0 -k RTR 
- -t 0.021395009 -s 9 -d 4 -p AODV -e 44 -c 2 -a 0 -i 0 -k RTR
h -t 0.021395009 -s 9 -d 4 -p AODV -e 44 -c 2 -a 0 -i 0 -k RTR
r -t 0.021395049 -s 0 -d -1 -p AODV -e 48 -c 2 -a 0 -i 0 -k RTR
r -t 0.022333799 -s 4 -d -1 -p AODV -e 48 -c 2 -a 0 -i 0 -k RTR
r -t 0.023311799 -s 4 -d -1 -p AODV -e 48 -c 2 -a 0 -i 0 -k RTR
+ -t 0.026715283 -s 8 -d -1 -p AODV -e 48 -c 2 -a 0 -i 0 -k RTR 
- -t 0.026715283 -s 8 -d -1 -p AODV -e 48 -c 2 -a 0 -i 0 -k RTR
h -t 0.026715283 -s 8 -d -1 -p AODV -e 48 -c 2 -a 0 -i 0 -k RTR
+ -t 0.028034234 -s 4 -d 0 -p AODV -e 44 -c 2 -a 0 -i 0 -k RTR 
- -t 0.028034234 -s 4 -d 0 -p AODV -e 44 -c 2 -a 0 -i 0 -k RTR
h -t 0.028034234 -s 4 -d 0 -p AODV -e 44 -c 2 -a 0 -i 0 -k RTR
+ -t 0.029017055 -s 3 -d -1 -p AODV -e 48 -c 2 -a 0 -i 0 -k RTR 
- -t 0.029017055 -s 3 -d -1 -p AODV -e 48 -c 2 -a 0 -i 0 -k RTR
h -t 0.029017055 -s 3 -d -1 -p AODV -e 48 -c 2 -a 0 -i 0 -k RTR
r -t 0.029517736 -s 2 -d -1 -p AODV -e 48 -c 2 -a 0 -i 0 -k RTR
r -t 0.031368962 -s 9 -d -1 -p AODV -e 48 -c 2 -a 0 -i 0 -k RTR
r -t 0.031369107 -s 4 -d -1 -p AODV -e 48 -c 2 -a 0 -i 0 -k RTR
n -t 1.000000 -s 0 -x 986.000000 -y 784.000000 -U -1.849047 -V -4.645538 -T 65.439132
n -t 1.000000 -s 1 -x 367.000000 -y 213.000000 -U 3.141027 -V 2.476681 -T 188.155023
n -t 1.000000 -s 2 -x 750.000000 -y 567.000000 -U -2.488444 -V 3.131716 -T 59.073048
n -t 1.000000 -s 3 -x 696.000000 -y 912.000000 -U -1.960117 -V -2.271110 -T 350.489340
n -t 1.000000 -s 4 -x 824.000000 -y 940.000000 -U -4.155879 -V -4.327664 -T 151.351871
n -t 1.000000 -s 5 -x 212.000000 -y 852.000000 -U 9.793216 -V 2.023096 -T 55.854991
n -t 1.000000 -s 6 -x 349.000000 -y 795.000000 -U 4.804535 -V 1.384357 -T 24.560130
n -t 1.000000 -s 7 -x 387.000000 -y 956.000000 -U 0.000000 -V -0.000000 -T 0.000000
n -t 1.000000 -s 8 -x 740.000000 -y 387.000000 -U 1.462595 -V 9.892463 -T 37.604388
n -t 1.000000 -s 9 -x 628.000000 -y 857.000000 -U 6.509725 -V 2.573612 -T 33.027509
+ -t 2.000000000 -s 0 -d -1 -p AODV -e 48 -c 2 -a 0 -i 0 -k RTR 
- -t 2.000000000 -s 0 -d -1 -p AODV -e 48 -c 2 -a 0 -i 0 -k RTR
h -t 2.000000000 -s 0 -d -1 -p AODV -e 48 -c 2 -a 0 -i 0 -k RTR
+ -t 2.000000000 -s 1 -d -1 -p AODV -e 48 -c 2 -a 0 -i 0 -k RTR 
- -t 2.000000000 -s 1 -d -1 -p AODV -e 48 -c 2 -a 0 -i 0 -k RTR
h -t 2.000000000 -s 1 -d -1 -p AODV -e 48 -c 2 -a 0 -i 0 -k RTR
+ -t 2.000000000 -s 2 -d -1 -p AODV -e 48 -c 2 -a 0 -i 0 -k RTR 
- -t 2.000000000 -s 2 -d -1 -p AODV -e 48 -c 2 -a 0 -i 0 -k RTR
h -t 2.000000000 -s 2 -d -1 -p AODV -e 48 -c 2 -a 0 -i 0 -k RTR
+ -t 2.000000000 -s 3 -d -1 -p AODV -e 48 -c 2 -a 0 -i 0 -k RTR 
- -t 2.000000000 -s 3 -d -1 -p AODV -e 48 -c 2 -a 0 -i 0 -k RTR
h -t 2.000000000 -s 3 -d -1 -p AODV -e 48 -c 2 -a 0 -i 0 -k RTR
+ -t 2.000000000 -s 4 -d -1 -p AODV -e 48 -c 2 -a 0 -i 0 -k RTR 
- -t 2.000000000 -s 4 -d -1 -p AODV -e 48 -c 2 -a 0 -i 0 -k RTR
h -t 2.000000000 -s 4 -d -1 -p AODV -e 48 -c 2 -a 0 -i 0 -k RTR
r -t 2.001128578 -s 8 -d -1 -p AODV -e 48 -c 2 -a 0 -i 0 -k RTR
r -t 2.002491405 -s 9 -d -1 -p AODV -e 48 -c 2 -a 0 -i 0 -k RTR
r -t 2.002491574 -s 4 -d -1 -p AODV -e 48 -c 2 -a 0 -i 0 -k RTR
+ -t 2.002767149 -s 4 -d -1 -p AODV -e 48 -c 2 -a 0 -i 0 -k RTR 
- -t 2.002767149 -s 4 -d -1 -p AODV -e 48 -c 2 -a 0 -i 0 -k RTR
h -t 2.002767149 -s 4 -d -1 -p AODV -e 48 -c 2 -a 0 -i 0 -k RTR
r -t 2.003590002 -s 3 -d -1 -p AODV -e 48 -c 2 -a 0 -i 0 -k RTR
r -t 2.003590242 -s 9 -d -1 -p AODV -e 48 -c 2 -a 0 -i 0 -k RTR
r -t 2.003590330 -s 0 -d -1 -p AODV -e 48 -c 2 -a 0 -i 0 -k RTR
r -t 2.004709086 -s 4 -d -1 -p AODV -e 48 -c 2 -a 0 -i 0 -k RTR
+ -t 2.004709086 -s 4 -d 0 -p AODV -e 44 -c 2 -a 0 -i 0 -k RTR 
- -t 2.004709086 -s 4 -d 0 -p AODV -e 44 -c 2 -a 0 -i 0 -k RTR
h -t 2.004709086 -s 4 -d 0 -p AODV -e 44 -c 2 -a 0 -i 0 -k RTR
d -t 2.004709086 -s 4 -d 0 -p AODV -e 44 -c 2 -a 0 -i 0 -k IFQ
+ -t 2.005452145 -s 3 -d -1 -p AODV -e 48 -c 2 -a 0 -i 0 -k RTR 
- -t 2.005452145 -s 3 -d -1 -p AODV -e 48 -c 2 -a 0 -i 0 -k RTR
h -t 2.005452145 -s 3 -d -1 -p AODV -e 48 -c 2 -a 0 -i 0 -k RTR
r -t 2.005687514 -s 3 -d -1 -p AODV -e 48 -c 2 -a 0 -i 0 -k RTR
r -t 2.005687754 -s 9 -d -1 -p AODV -e 48 -c 2 -a 0 -i 0 -k RTR
r -t 2.005687842 -s 0 -d -1 -p AODV -e 48 -c 2 -a 0 -i 0 -k RTR
r -t 2.006605773 -s 9 -d -1 -p AODV -e 48 -c 2 -a 0 -i 0 -k RTR
r -t 2.006605942 -s 4 -d -1 -p AODV -e 48 -c 2 -a 0 -i 0 -k RTR
+ -t 2.006748278 -s 9 -d -1 -p AODV -e 48 -c 2 -a 0 -i 0 -k RTR 
- -t 2.006748278 -s 9 -d -1 -p AODV -e 48 -c 2 -a 0 -i 0 -k RTR
h -t 2.006748278 -s 9 -d -1 -p AODV -e 48 -c 2 -a 0 -i 0 -k RTR
+ -t 2.007475121 -s 0 -d -1 -p AODV -e 48 -c 2 -a 0 -i 0 -k RTR 
- -t 2.007475121 -s 0 -d -1 -p AODV -e 48 -c 2 -a 0 -i 0 -k RTR
h -t 2.007475121 -s 0 -d -1 -p AODV -e 48 -c 2 -a 0 -i 0 -k RTR
r -t 2.008742869 -s 3 -d -1 -p AODV -e 48 -c 2 -a 0 -i 0 -k RTR
r -t 2.008743277 -s 4 -d -1 -p AODV -e 48 -c 2 -a 0 -i 0 -k RTR
+ -t 2.009895135 -s 8 -d -1 -p AODV -e 48 -c 2 -a 0 -i 0 -k RTR 
- -t 2.009895135 -s 8 -d -1 -p AODV -e 48 -c 2 -a 0 -i 0 -k RTR
h -t 2.009895135 -s 8 -d -1 -p AODV -e 48 -c 2 -a 0 -i 0 -k RTR
r -t 2.010066561 -s 4 -d -1 -p AODV -e 48 -c 2 -a 0 -i 0 -k RTR
+ -t 2.011440113 -s 9 -d -1 -p AODV -e 48 -c 2 -a 0 -i 0 -k RTR 
- -t 2.011440113 -s 9 -d -1 -p AODV -e 48 -c 2 -a 0 -i 0 -k RTR
h -t 2.011440113 -s 9 -d -1 -p AODV -e 48 -c 2 -a 0 -i 0 -k RTR
r -t 2.012984772 -s 3 -d -1 -p AODV -e 48 -c 2 -a 0 -i 0 -k RTR
r -t 2.012985180 -s 4 -d -1 -p AODV -e 48 -c 2 -a 0 -i 0 -k RTR
+ -t 2.013058492 -s 0 -d -1 -p AODV -e 48 -c 2 -a 0 -i 0 -k RTR 
- -t 2.013058492 -s 0 -d -1 -p AODV -e 48 -c 2 -a 0 -i 0 -k RTR
h -t 2.013058492 -s 0 -d -1 -p AODV -e 48 -c 2 -a 0 -i 0 -k RTR
+ -t 2.014549448 -s 0 -d 4 -p tcp -e 40 -c 2 -a 0 -i 0 -k RTR 
- -t 2.014549448 -s 0 -d 4 -p tcp -e 40 -c 2 -a 0 -i 0 -k RTR
h -t 2.014549448 -s 0 -d 4 -p tcp -e 40 -c 2 -a 0 -i 0 -k RTR
r -t 2.015962204 -s 4 -d -1 -p AODV -e 48 -c 2 -a 0 -i 0 -k RTR
+ -t 2.017813717 -s 4 -d 9 -p tcp -e 40 -c 2 -a 0 -i 0 -k RTR 
- -t 2.017813717 -s 4 -d 9 -p tcp -e 40 -c 2 -a 0 -i 0 -k RTR
h -t 2.017813717 -s 4 -d 9 -p tcp -e 40 -c 2 -a 0 -i 0 -k RTR
r -t 2.019512108 -s 2 -d -1 -p AODV -e 48 -c 2 -a 0 -i 0 -k RTR
r -t 2.021509345 -s 9 -d 9 -p tcp -e 40 -c 2 -a 0 -i 0 -k AGT
+ -t 2.021509345 -s 9 -d -1 -p ack -e 40 -c 2 -a 0 -i 5 -k AGT 
- -t 2.021509345 -s 9 -d -1 -p ack -e 40 -c 2 -a 0 -i 5 -k AGT
h -t 2.021509345 -s 9 -d -1 -p ack -e 40 -c 2 -a 0 -i 5 -k AGT
+ -t 2.021509345 -s 9 -d 4 -p ack -e 40 -c 2 -a 0 -i 5 -k RTR 
- -t 2.021509345 -s 9 -d 4 -p ack -e 40 -c 2 -a 0 -i 5 -k RTR
h -t 2.021509345 -s 9 -d 4 -p ack -e 40 -c 2 -a 0 -i 5 -k RTR
+ -t 2.023915346 -s 4 -d 0 -p ack -e 40 -c 2 -a 0 -i 5 -k RTR 
- -t 2.023915346 -s 4 -d 0 -p ack -e 40 -c 2 -a 0 -i 5 -k RTR
h -t 2.023915346 -s 4 -d 0 -p ack -e 40 -c 2 -a 0 -i 5 -k RTR
r -t 2.026341614 -s 0 -d 0 -p ack -e 40 -c 2 -a 0 -i 5 -k AGT
+ -t 2.026341614 -s 0 -d -1 -p tcp -e 1540 -c 2 -a 0 -i 6 -k AGT 
- -t 2.026341614 -s 0 -d -1 -p tcp -e 1540 -c 2 -a 0 -i 6 -k AGT
h -t 2.026341614 -s 0 -d -1 -p tcp -e 1540 -c 2 -a 0 -i 6 -k AGT
+ -t 2.026341614 -s 0 -d -1 -p tcp -e 1540 -c 2 -a 0 -i 7 -k AGT 
- -t 2.026341614 -s 0 -d -1 -p tcp -e 1540 -c 2 -a 0 -i 7 -k AGT
h -t 2.026341614 -s 0 -d -1 -p tcp -e 1540 -c 2 -a 0 -i 7 -k AGT
+ -t 2.026341614 -s 0 -d 4 -p tcp -e 1540 -c 2 -a 0 -i 6 -k RTR 
- -t 2.026341614 -s 0 -d 4 -p tcp -e 1540 -c 2 -a 0 -i 6 -k RTR
h -t 2.026341614 -s 0 -d 4 -p tcp -e 1540 -c 2 -a 0 -i 6 -k RTR
+ -t 2.026341614 -s 0 -d 4 -p tcp -e 1540 -c 2 -a 0 -i 7 -k RTR 
- -t 2.026341614 -s 0 -d 4 -p tcp -e 1540 -c 2 -a 0 -i 7 -k RTR
h -t 2.026341614 -s 0 -d 4 -p tcp -e 1540 -c 2 -a 0 -i 7 -k RTR
+ -t 2.040707883 -s 4 -d 9 -p tcp -e 1540 -c 2 -a 0 -i 6 -k RTR 
- -t 2.040707883 -s 4 -d 9 -p tcp -e 1540 -c 2 -a 0 -i 6 -k RTR
h -t 2.040707883 -s 4 -d 9 -p tcp -e 1540 -c 2 -a 0 -i 6 -k RTR
+ -t 2.055600908 -s 4 -d 9 -p tcp -e 1540 -c 2 -a 0 -i 7 -k RTR 
- -t 2.055600908 -s 4 -d 9 -p tcp -e 1540 -c 2 -a 0 -i 7 -k RTR
h -t 2.055600908 -s 4 -d 9 -p tcp -e 1540 -c 2 -a 0 -i 7 -k RTR
r -t 2.069746904 -s 9 -d 9 -p tcp -e 1540 -c 2 -a 0 -i 6 -k AGT
+ -t 2.069746904 -s 9 -d -1 -p ack -e 40 -c 2 -a 0 -i 8 -k AGT 
- -t 2.069746904 -s 9 -d -1 -p ack -e 40 -c 2 -a 0 -i 8 -k AGT
h -t 2.069746904 -s 9 -d -1 -p ack -e 40 -c 2 -a 0 -i 8 -k AGT
+ -t 2.069746904 -s 9 -d 4 -p ack -e 40 -c 2 -a 0 -i 8 -k RTR 
- -t 2.069746904 -s 9 -d 4 -p ack -e 40 -c 2 -a 0 -i 8 -k RTR
h -t 2.069746904 -s 9 -d 4 -p ack -e 40 -c 2 -a 0 -i 8 -k RTR
r -t 2.083753564 -s 9 -d 9 -p tcp -e 1540 -c 2 -a 0 -i 7 -k AGT
+ -t 2.083753564 -s 9 -d -1 -p ack -e 40 -c 2 -a 0 -i 9 -k AGT 
- -t 2.083753564 -s 9 -d -1 -p ack -e 40 -c 2 -a 0 -i 9 -k AGT
h -t 2.083753564 -s 9 -d -1 -p ack -e 40 -c 2 -a 0 -i 9 -k AGT
+ -t 2.083753564 -s 9 -d 4 -p ack -e 40 -c 2 -a 0 -i 9 -k RTR 
- -t 2.083753564 -s 9 -d 4 -p ack -e 40 -c 2 -a 0 -i 9 -k RTR
h -t 2.083753564 -s 9 -d 4 -p ack -e 40 -c 2 -a 0 -i 9 -k RTR
+ -t 2.085619557 -s 4 -d 0 -p ack -e 40 -c 2 -a 0 -i 8 -k RTR 
- -t 2.085619557 -s 4 -d 0 -p ack -e 40 -c 2 -a 0 -i 8 -k RTR
h -t 2.085619557 -s 4 -d 0 -p ack -e 40 -c 2 -a 0 -i 8 -k RTR
r -t 2.087585826 -s 0 -d 0 -p ack -e 40 -c 2 -a 0 -i 8 -k AGT
+ -t 2.087585826 -s 0 -d -1 -p tcp -e 1540 -c 2 -a 0 -i 10 -k AGT 
- -t 2.087585826 -s 0 -d -1 -p tcp -e 1540 -c 2 -a 0 -i 10 -k AGT
h -t 2.087585826 -s 0 -d -1 -p tcp -e 1540 -c 2 -a 0 -i 10 -k AGT
+ -t 2.087585826 -s 0 -d -1 -p tcp -e 1540 -c 2 -a 0 -i 11 -k AGT 
- -t 2.087585826 -s 0 -d -1 -p tcp -e 1540 -c 2 -a 0 -i 11 -k AGT
h -t 2.087585826 -s 0 -d -1 -p tcp -e 1540 -c 2 -a 0 -i 11 -k AGT
+ -t 2.087585826 -s 0 -d 4 -p tcp -e 1540 -c 2 -a 0 -i 10 -k RTR 
- -t 2.087585826 -s 0 -d 4 -p tcp -e 1540 -c 2 -a 0 -i 10 -k RTR
h -t 2.087585826 -s 0 -d 4 -p tcp -e 1540 -c 2 -a 0 -i 10 -k RTR
+ -t 2.087585826 -s 0 -d 4 -p tcp -e 1540 -c 2 -a 0 -i 11 -k RTR 
- -t 2.087585826 -s 0 -d 4 -p tcp -e 1540 -c 2 -a 0 -i 11 -k RTR
h -t 2.087585826 -s 0 -d 4 -p tcp -e 1540 -c 2 -a 0 -i 11 -k RTR
+ -t 2.101592096 -s 4 -d 9 -p tcp -e 1540 -c 2 -a 0 -i 10 -k RTR 
- -t 2.101592096 -s 4 -d 9 -p tcp -e 1540 -c 2 -a 0 -i 10 -k RTR
h -t 2.101592096 -s 4 -d 9 -p tcp -e 1540 -c 2 -a 0 -i 10 -k RTR
+ -t 2.115539122 -s 4 -d 9 -p tcp -e 1540 -c 2 -a 0 -i 11 -k RTR 
- -t 2.115539122 -s 4 -d 9 -p tcp -e 1540 -c 2 -a 0 -i 11 -k RTR
h -t 2.115539122 -s 4 -d 9 -p tcp -e 1540 -c 2 -a 0 -i 11 -k RTR
r -t 2.129465111 -s 9 -d 9 -p tcp -e 1540 -c 2 -a 0 -i 10 -k AGT
+ -t 2.129465111 -s 9 -d -1 -p ack -e 40 -c 2 -a 0 -i 12 -k AGT 
- -t 2.129465111 -s 9 -d -1 -p ack -e 40 -c 2 -a 0 -i 12 -k AGT
h -t 2.129465111 -s 9 -d -1 -p ack -e 40 -c 2 -a 0 -i 12 -k AGT
+ -t 2.129465111 -s 9 -d 4 -p ack -e 40 -c 2 -a 0 -i 12 -k RTR 
- -t 2.129465111 -s 9 -d 4 -p ack -e 40 -c 2 -a 0 -i 12 -k RTR
h -t 2.129465111 -s 9 -d 4 -p ack -e 40 -c 2 -a 0 -i 12 -k RTR
+ -t 2.131511098 -s 4 -d 0 -p ack -e 40 -c 2 -a 0 -i 9 -k RTR 
- -t 2.131511098 -s 4 -d 0 -p ack -e 40 -c 2 -a 0 -i 9 -k RTR
h -t 2.131511098 -s 4 -d 0 -p ack -e 40 -c 2 -a 0 -i 9 -k RTR
+ -t 2.133337748 -s 4 -d 0 -p ack -e 40 -c 2 -a 0 -i 12 -k RTR 
- -t 2.133337748 -s 4 -d 0 -p ack -e 40 -c 2 -a 0 -i 12 -k RTR
h -t 2.133337748 -s 4 -d 0 -p ack -e 40 -c 2 -a 0 -i 12 -k RTR
r -t 2.147183734 -s 9 -d 9 -p tcp -e 1540 -c 2 -a 0 -i 11 -k AGT
+ -t 2.147183734 -s 9 -d -1 -p ack -e 40 -c 2 -a 0 -i 13 -k AGT 
- -t 2.147183734 -s 9 -d -1 -p ack -e 40 -c 2 -a 0 -i 13 -k AGT
h -t 2.147183734 -s 9 -d -1 -p ack -e 40 -c 2 -a 0 -i 13 -k AGT
+ -t 2.147183734 -s 9 -d 4 -p ack -e 40 -c 2 -a 0 -i 13 -k RTR 
- -t 2.147183734 -s 9 -d 4 -p ack -e 40 -c 2 -a 0 -i 13 -k RTR
h -t 2.147183734 -s 9 -d 4 -p ack -e 40 -c 2 -a 0 -i 13 -k RTR
+ -t 2.149149719 -s 4 -d 0 -p ack -e 40 -c 2 -a 0 -i 13 -k RTR 
- -t 2.149149719 -s 4 -d 0 -p ack -e 40 -c 2 -a 0 -i 13 -k RTR
h -t 2.149149719 -s 4 -d 0 -p ack -e 40 -c 2 -a 0 -i 13 -k RTR
r -t 2.151215990 -s 0 -d 0 -p ack -e 40 -c 2 -a 0 -i 9 -k AGT
+ -t 2.151215990 -s 0 -d -1 -p tcp -e 1540 -c 2 -a 0 -i 14 -k AGT 
- -t 2.151215990 -s 0 -d -1 -p tcp -e 1540 -c 2 -a 0 -i 14 -k AGT
h -t 2.151215990 -s 0 -d -1 -p tcp -e 1540 -c 2 -a 0 -i 14 -k AGT
+ -t 2.151215990 -s 0 -d -1 -p tcp -e 1540 -c 2 -a 0 -i 15 -k AGT 
- -t 2.151215990 -s 0 -d -1 -p tcp -e 1540 -c 2 -a 0 -i 15 -k AGT
h -t 2.151215990 -s 0 -d -1 -p tcp -e 1540 -c 2 -a 0 -i 15 -k AGT
+ -t 2.151215990 -s 0 -d 4 -p tcp -e 1540 -c 2 -a 0 -i 14 -k RTR 
- -t 2.151215990 -s 0 -d 4 -p tcp -e 1540 -c 2 -a 0 -i 14 -k RTR
h -t 2.151215990 -s 0 -d 4 -p tcp -e 1540 -c 2 -a 0 -i 14 -k RTR
+ -t 2.151215990 -s 0 -d 4 -p tcp -e 1540 -c 2 -a 0 -i 15 -k RTR 
- -t 2.151215990 -s 0 -d 4 -p tcp -e 1540 -c 2 -a 0 -i 15 -k RTR
h -t 2.151215990 -s 0 -d 4 -p tcp -e 1540 -c 2 -a 0 -i 15 -k RTR
+ -t 2.165462261 -s 4 -d 9 -p tcp -e 1540 -c 2 -a 0 -i 14 -k RTR 
- -t 2.165462261 -s 4 -d 9 -p tcp -e 1540 -c 2 -a 0 -i 14 -k RTR
h -t 2.165462261 -s 4 -d 9 -p tcp -e 1540 -c 2 -a 0 -i 14 -k RTR
r -t 2.167368532 -s 0 -d 0 -p ack -e 40 -c 2 -a 0 -i 12 -k AGT
+ -t 2.167368532 -s 0 -d -1 -p tcp -e 1540 -c 2 -a 0 -i 16 -k AGT 
- -t 2.167368532 -s 0 -d -1 -p tcp -e 1540 -c 2 -a 0 -i 16 -k AGT
h -t 2.167368532 -s 0 -d -1 -p tcp -e 1540 -c 2 -a 0 -i 16 -k AGT
+ -t 2.167368532 -s 0 -d -1 -p tcp -e 1540 -c 2 -a 0 -i 17 -k AGT 
- -t 2.167368532 -s 0 -d -1 -p tcp -e 1540 -c 2 -a 0 -i 17 -k AGT
h -t 2.167368532 -s 0 -d -1 -p tcp -e 1540 -c 2 -a 0 -i 17 -k AGT
+ -t 2.167368532 -s 0 -d 4 -p tcp -e 1540 -c 2 -a 0 -i 16 -k RTR 
- -t 2.167368532 -s 0 -d 4 -p tcp -e 1540 -c 2 -a 0 -i 16 -k RTR
h -t 2.167368532 -s 0 -d 4 -p tcp -e 1540 -c 2 -a 0 -i 16 -k RTR
+ -t 2.167368532 -s 0 -d 4 -p tcp -e 1540 -c 2 -a 0 -i 17 -k RTR 
- -t 2.167368532 -s 0 -d 4 -p tcp -e 1540 -c 2 -a 0 -i 17 -k RTR
h -t 2.167368532 -s 0 -d 4 -p tcp -e 1540 -c 2 -a 0 -i 17 -k RTR
r -t 2.169355560 -s 0 -d 0 -p ack -e 40 -c 2 -a 0 -i 13 -k AGT
+ -t 2.169355560 -s 0 -d -1 -p tcp -e 1540 -c 2 -a 0 -i 18 -k AGT 
- -t 2.169355560 -s 0 -d -1 -p tcp -e 1540 -c 2 -a 0 -i 18 -k AGT
h -t 2.169355560 -s 0 -d -1 -p tcp -e 1540 -c 2 -a 0 -i 18 -k AGT
+ -t 2.169355560 -s 0 -d -1 -p tcp -e 1540 -c 2 -a 0 -i 19 -k AGT 
- -t 2.169355560 -s 0 -d -1 -p tcp -e 1540 -c 2 -a 0 -i 19 -k AGT
h -t 2.169355560 -s 0 -d -1 -p tcp -e 1540 -c 2 -a 0 -i 19 -k AGT
+ -t 2.169355560 -s 0 -d 4 -p tcp -e 1540 -c 2 -a 0 -i 18 -k RTR 
- -t 2.169355560 -s 0 -d 4 -p tcp -e 1540 -c 2 -a 0 -i 18 -k RTR
h -t 2.169355560 -s 0 -d 4 -p tcp -e 1540 -c 2 -a 0 -i 18 -k RTR
+ -t 2.169355560 -s 0 -d 4 -p tcp -e 1540 -c 2 -a 0 -i 19 -k RTR 
- -t 2.169355560 -s 0 -d 4 -p tcp -e 1540 -c 2 -a 0 -i 19 -k RTR
h -t 2.169355560 -s 0 -d 4 -p tcp -e 1540 -c 2 -a 0 -i 19 -k RTR
r -t 2.183202299 -s 9 -d 9 -p tcp -e 1540 -c 2 -a 0 -i 14 -k AGT
+ -t 2.183202299 -s 9 -d -1 -p ack -e 40 -c 2 -a 0 -i 20 -k AGT 
- -t 2.183202299 -s 9 -d -1 -p ack -e 40 -c 2 -a 0 -i 20 -k AGT
h -t 2.183202299 -s 9 -d -1 -p ack -e 40 -c 2 -a 0 -i 20 -k AGT
+ -t 2.183202299 -s 9 -d 4 -p ack -e 40 -c 2 -a 0 -i 20 -k RTR 
- -t 2.183202299 -s 9 -d 4 -p ack -e 40 -c 2 -a 0 -i 20 -k RTR
h -t 2.183202299 -s 9 -d 4 -p ack -e 40 -c 2 -a 0 -i 20 -k RTR
+ -t 2.185068280 -s 4 -d 0 -p ack -e 40 -c 2 -a 0 -i 20 -k RTR 
- -t 2.185068280 -s 4 -d 0 -p ack -e 40 -c 2 -a 0 -i 20 -k RTR
h -t 2.185068280 -s 4 -d 0 -p ack -e 40 -c 2 -a 0 -i 20 -k RTR
+ -t 2.199005083 -s 4 -d 9 -p tcp -e 1540 -c 2 -a 0 -i 15 -k RTR 
- -t 2.199005083 -s 4 -d 9 -p tcp -e 1540 -c 2 -a 0 -i 15 -k RTR
h -t 2.199005083 -s 4 -d 9 -p tcp -e 1540 -c 2 -a 0 -i 15 -k RTR
+ -t 2.212832111 -s 4 -d 9 -p tcp -e 1540 -c 2 -a 0 -i 16 -k RTR 
- -t 2.212832111 -s 4 -d 9 -p tcp -e 1540 -c 2 -a 0 -i 16 -k RTR
h -t 2.212832111 -s 4 -d 9 -p tcp -e 1540 -c 2 -a 0 -i 16 -k RTR
+ -t 2.226719141 -s 4 -d 9 -p tcp -e 1540 -c 2 -a 0 -i 17 -k RTR 
- -t 2.226719141 -s 4 -d 9 -p tcp -e 1540 -c 2 -a 0 -i 17 -k RTR
h -t 2.226719141 -s 4 -d 9 -p tcp -e 1540 -c 2 -a 0 -i 17 -k RTR
r -t 2.228625413 -s 0 -d 0 -p ack -e 40 -c 2 -a 0 -i 20 -k AGT
+ -t 2.228625413 -s 0 -d -1 -p tcp -e 1540 -c 2 -a 0 -i 21 -k AGT 
- -t 2.228625413 -s 0 -d -1 -p tcp -e 1540 -c 2 -a 0 -i 21 -k AGT
h -t 2.228625413 -s 0 -d -1 -p tcp -e 1540 -c 2 -a 0 -i 21 -k AGT
+ -t 2.228625413 -s 0 -d -1 -p tcp -e 1540 -c 2 -a 0 -i 22 -k AGT 
- -t 2.228625413 -s 0 -d -1 -p tcp -e 1540 -c 2 -a 0 -i 22 -k AGT
h -t 2.228625413 -s 0 -d -1 -p tcp -e 1540 -c 2 -a 0 -i 22 -k AGT
+ -t 2.228625413 -s 0 -d 4 -p tcp -e 1540 -c 2 -a 0 -i 21 -k RTR 
- -t 2.228625413 -s 0 -d 4 -p tcp -e 1540 -c 2 -a 0 -i 21 -k RTR
h -t 2.228625413 -s 0 -d 4 -p tcp -e 1540 -c 2 -a 0 -i 21 -k RTR
+ -t 2.228625413 -s 0 -d 4 -p tcp -e 1540 -c 2 -a 0 -i 22 -k RTR 
- -t 2.228625413 -s 0 -d 4 -p tcp -e 1540 -c 2 -a 0 -i 22 -k RTR
h -t 2.228625413 -s 0 -d 4 -p tcp -e 1540 -c 2 -a 0 -i 22 -k RTR
+ -t 2.242891685 -s 4 -d 9 -p tcp -e 1540 -c 2 -a 0 -i 18 -k RTR 
- -t 2.242891685 -s 4 -d 9 -p tcp -e 1540 -c 2 -a 0 -i 18 -k RTR
h -t 2.242891685 -s 4 -d 9 -p tcp -e 1540 -c 2 -a 0 -i 18 -k RTR
r -t 2.256877658 -s 9 -d 9 -p tcp -e 1540 -c 2 -a 0 -i 15 -k AGT
+ -t 2.256877658 -s 9 -d -1 -p ack -e 40 -c 2 -a 0 -i 23 -k AGT 
- -t 2.256877658 -s 9 -d -1 -p ack -e 40 -c 2 -a 0 -i 23 -k AGT
h -t 2.256877658 -s 9 -d -1 -p ack -e 40 -c 2 -a 0 -i 23 -k AGT
+ -t 2.256877658 -s 9 -d 4 -p ack -e 40 -c 2 -a 0 -i 23 -k RTR 
- -t 2.256877658 -s 9 -d 4 -p ack -e 40 -c 2 -a 0 -i 23 -k RTR
h -t 2.256877658 -s 9 -d 4 -p ack -e 40 -c 2 -a 0 -i 23 -k RTR
+ -t 2.258723629 -s 4 -d 0 -p ack -e 40 -c 2 -a 0 -i 23 -k RTR 
- -t 2.258723629 -s 4 -d 0 -p ack -e 40 -c 2 -a 0 -i 23 -k RTR
h -t 2.258723629 -s 4 -d 0 -p ack -e 40 -c 2 -a 0 -i 23 -k RTR
r -t 2.272569601 -s 9 -d 9 -p tcp -e 1540 -c 2 -a 0 -i 16 -k AGT
+ -t 2.272569601 -s 9 -d -1 -p ack -e 40 -c 2 -a 0 -i 24 -k AGT 
- -t 2.272569601 -s 9 -d -1 -p ack -e 40 -c 2 -a 0 -i 24 -k AGT
h -t 2.272569601 -s 9 -d -1 -p ack -e 40 -c 2 -a 0 -i 24 -k AGT
+ -t 2.272569601 -s 9 -d 4 -p ack -e 40 -c 2 -a 0 -i 24 -k RTR 
- -t 2.272569601 -s 9 -d 4 -p ack -e 40 -c 2 -a 0 -i 24 -k RTR
h -t 2.272569601 -s 9 -d 4 -p ack -e 40 -c 2 -a 0 -i 24 -k RTR
+ -t 2.274455570 -s 4 -d 0 -p ack -e 40 -c 2 -a 0 -i 24 -k RTR 
- -t 2.274455570 -s 4 -d 0 -p ack -e 40 -c 2 -a 0 -i 24 -k RTR
h -t 2.274455570 -s 4 -d 0 -p ack -e 40 -c 2 -a 0 -i 24 -k RTR
r -t 2.288501539 -s 9 -d 9 -p tcp -e 1540 -c 2 -a 0 -i 17 -k AGT
+ -t 2.288501539 -s 9 -d -1 -p ack -e 40 -c 2 -a 0 -i 25 -k AGT 
- -t 2.288501539 -s 9 -d -1 -p ack -e 40 -c 2 -a 0 -i 25 -k AGT
h -t 2.288501539 -s 9 -d -1 -p ack -e 40 -c 2 -a 0 -i 25 -k AGT
+ -t 2.288501539 -s 9 -d 4 -p ack -e 40 -c 2 -a 0 -i 25 -k RTR 
- -t 2.288501539 -s 9 -d 4 -p ack -e 40 -c 2 -a 0 -i 25 -k RTR
h -t 2.288501539 -s 9 -d 4 -p ack -e 40 -c 2 -a 0 -i 25 -k RTR
+ -t 2.290347506 -s 4 -d 0 -p ack -e 40 -c 2 -a 0 -i 25 -k RTR 
- -t 2.290347506 -s 4 -d 0 -p ack -e 40 -c 2 -a 0 -i 25 -k RTR
h -t 2.290347506 -s 4 -d 0 -p ack -e 40 -c 2 -a 0 -i 25 -k RTR
+ -t 2.304324314 -s 4 -d 9 -p tcp -e 1540 -c 2 -a 0 -i 19 -k RTR 
- -t 2.304324314 -s 4 -d 9 -p tcp -e 1540 -c 2 -a 0 -i 19 -k RTR
h -t 2.304324314 -s 4 -d 9 -p tcp -e 1540 -c 2 -a 0 -i 19 -k RTR
r -t 2.318390279 -s 9 -d 9 -p tcp -e 1540 -c 2 -a 0 -i 18 -k AGT
+ -t 2.318390279 -s 9 -d -1 -p ack -e 40 -c 2 -a 0 -i 26 -k AGT 
- -t 2.318390279 -s 9 -d -1 -p ack -e 40 -c 2 -a 0 -i 26 -k AGT
h -t 2.318390279 -s 9 -d -1 -p ack -e 40 -c 2 -a 0 -i 26 -k AGT
+ -t 2.318390279 -s 9 -d 4 -p ack -e 40 -c 2 -a 0 -i 26 -k RTR 
- -t 2.318390279 -s 9 -d 4 -p ack -e 40 -c 2 -a 0 -i 26 -k RTR
h -t 2.318390279 -s 9 -d 4 -p ack -e 40 -c 2 -a 0 -i 26 -k RTR
+ -t 2.320336243 -s 4 -d 0 -p ack -e 40 -c 2 -a 0 -i 26 -k RTR 
- -t 2.320336243 -s 4 -d 0 -p ack -e 40 -c 2 -a 0 -i 26 -k RTR
h -t 2.320336243 -s 4 -d 0 -p ack -e 40 -c 2 -a 0 -i 26 -k RTR
+ -t 2.334353051 -s 4 -d 9 -p tcp -e 1540 -c 2 -a 0 -i 21 -k RTR 
- -t 2.334353051 -s 4 -d 9 -p tcp -e 1540 -c 2 -a 0 -i 21 -k RTR
h -t 2.334353051 -s 4 -d 9 -p tcp -e 1540 -c 2 -a 0 -i 21 -k RTR
+ -t 2.348360083 -s 4 -d 9 -p tcp -e 1540 -c 2 -a 0 -i 22 -k RTR 
- -t 2.348360083 -s 4 -d 9 -p tcp -e 1540 -c 2 -a 0 -i 22 -k RTR
h -t 2.348360083 -s 4 -d 9 -p tcp -e 1540 -c 2 -a 0 -i 22 -k RTR
r -t 2.350206358 -s 0 -d 0 -p ack -e 40 -c 2 -a 0 -i 23 -k AGT
+ -t 2.350206358 -s 0 -d -1 -p tcp -e 1540 -c 2 -a 0 -i 27 -k AGT 
- -t 2.350206358 -s 0 -d -1 -p tcp -e 1540 -c 2 -a 0 -i 27 -k AGT
h -t 2.350206358 -s 0 -d -1 -p tcp -e 1540 -c 2 -a 0 -i 27 -k AGT
+ -t 2.350206358 -s 0 -d -1 -p tcp -e 1540 -c 2 -a 0 -i 28 -k AGT 
- -t 2.350206358 -s 0 -d -1 -p tcp -e 1540 -c 2 -a 0 -i 28 -k AGT
h -t 2.350206358 -s 0 -d -1 -p tcp -e 1540 -c 2 -a 0 -i 28 -k AGT
+ -t 2.350206358 -s 0 -d 4 -p tcp -e 1540 -c 2 -a 0 -i 27 -k RTR 
- -t 2.350206358 -s 0 -d 4 -p tcp -e 1540 -c 2 -a 0 -i 27 -k RTR
h -t 2.350206358 -s 0 -d 4 -p tcp -e 1540 -c 2 -a 0 -i 27 -k RTR
+ -t 2.350206358 -s 0 -d 4 -p tcp -e 1540 -c 2 -a 0 -i 28 -k RTR 
- -t 2.350206358 -s 0 -d 4 -p tcp -e 1540 -c 2 -a 0 -i 28 -k RTR
h -t 2.350206358 -s 0 -d 4 -p tcp -e 1540 -c 2 -a 0 -i 28 -k RTR
r -t 2.352213390 -s 0 -d 0 -p ack -e 40 -c 2 -a 0 -i 24 -k AGT
+ -t 2.352213390 -s 0 -d -1 -p tcp -e 1540 -c 2 -a 0 -i 29 -k AGT 
- -t 2.352213390 -s 0 -d -1 -p tcp -e 1540 -c 2 -a 0 -i 29 -k AGT
h -t 2.352213390 -s 0 -d -1 -p tcp -e 1540 -c 2 -a 0 -i 29 -k AGT
+ -t 2.352213390 -s 0 -d -1 -p tcp -e 1540 -c 2 -a 0 -i 30 -k AGT 
- -t 2.352213390 -s 0 -d -1 -p tcp -e 1540 -c 2 -a 0 -i 30 -k AGT
h -t 2.352213390 -s 0 -d -1 -p tcp -e 1540 -c 2 -a 0 -i 30 -k AGT
+ -t 2.352213390 -s 0 -d 4 -p tcp -e 1540 -c 2 -a 0 -i 29 -k RTR 
- -t 2.352213390 -s 0 -d 4 -p tcp -e 1540 -c 2 -a 0 -i 29 -k RTR
h -t 2.352213390 -s 0 -d 4 -p tcp -e 1540 -c 2 -a 0 -i 29 -k RTR
+ -t 2.352213390 -s 0 -d 4 -p tcp -e 1540 -c 2 -a 0 -i 30 -k RTR 
- -t 2.352213390 -s 0 -d 4 -p tcp -e 1540 -c 2 -a 0 -i 30 -k RTR
h -t 2.352213390 -s 0 -d 4 -p tcp -e 1540 -c 2 -a 0 -i 30 -k RTR
r -t 2.354180423 -s 0 -d 0 -p ack -e 40 -c 2 -a 0 -i 25 -k AGT
+ -t 2.354180423 -s 0 -d -1 -p tcp -e 1540 -c 2 -a 0 -i 31 -k AGT 
- -t 2.354180423 -s 0 -d -1 -p tcp -e 1540 -c 2 -a 0 -i 31 -k AGT
h -t 2.354180423 -s 0 -d -1 -p tcp -e 1540 -c 2 -a 0 -i 31 -k AGT
+ -t 2.354180423 -s 0 -d -1 -p tcp -e 1540 -c 2 -a 0 -i 32 -k AGT 
- -t 2.354180423 -s 0 -d -1 -p tcp -e 1540 -c 2 -a 0 -i 32 -k AGT
h -t 2.354180423 -s 0 -d -1 -p tcp -e 1540 -c 2 -a 0 -i 32 -k AGT
+ -t 2.354180423 -s 0 -d 4 -p tcp -e 1540 -c 2 -a 0 -i 31 -k RTR 
- -t 2.354180423 -s 0 -d 4 -p tcp -e 1540 -c 2 -a 0 -i 31 -k RTR
h -t 2.354180423 -s 0 -d 4 -p tcp -e 1540 -c 2 -a 0 -i 31 -k RTR
+ -t 2.354180423 -s 0 -d 4 -p tcp -e 1540 -c 2 -a 0 -i 32 -k RTR 
- -t 2.354180423 -s 0 -d 4 -p tcp -e 1540 -c 2 -a 0 -i 32 -k RTR
h -t 2.354180423 -s 0 -d 4 -p tcp -e 1540 -c 2 -a 0 -i 32 -k RTR
+ -t 2.368206697 -s 4 -d 9 -p tcp -e 1540 -c 2 -a 0 -i 27 -k RTR 
- -t 2.368206697 -s 4 -d 9 -p tcp -e 1540 -c 2 -a 0 -i 27 -k RTR
h -t 2.368206697 -s 4 -d 9 -p tcp -e 1540 -c 2 -a 0 -i 27 -k RTR
+ -t 2.382033731 -s 4 -d 9 -p tcp -e 1540 -c 2 -a 0 -i 28 -k RTR 
- -t 2.382033731 -s 4 -d 9 -p tcp -e 1540 -c 2 -a 0 -i 28 -k RTR
h -t 2.382033731 -s 4 -d 9 -p tcp -e 1540 -c 2 -a 0 -i 28 -k RTR
r -t 2.395899686 -s 9 -d 9 -p tcp -e 1540 -c 2 -a 0 -i 19 -k AGT
+ -t 2.395899686 -s 9 -d -1 -p ack -e 40 -c 2 -a 0 -i 33 -k AGT 
- -t 2.395899686 -s 9 -d -1 -p ack -e 40 -c 2 -a 0 -i 33 -k AGT
h -t 2.395899686 -s 9 -d -1 -p ack -e 40 -c 2 -a 0 -i 33 -k AGT
+ -t 2.395899686 -s 9 -d 4 -p ack -e 40 -c 2 -a 0 -i 33 -k RTR 
- -t 2.395899686 -s 9 -d 4 -p ack -e 40 -c 2 -a 0 -i 33 -k RTR
h -t 2.395899686 -s 9 -d 4 -p ack -e 40 -c 2 -a 0 -i 33 -k RTR
r -t 2.397726613 -s 0 -d 0 -p ack -e 40 -c 2 -a 0 -i 26 -k AGT
+ -t 2.397726613 -s 0 -d -1 -p tcp -e 1540 -c 2 -a 0 -i 34 -k AGT 
- -t 2.397726613 -s 0 -d -1 -p tcp -e 1540 -c 2 -a 0 -i 34 -k AGT
h -t 2.397726613 -s 0 -d -1 -p tcp -e 1540 -c 2 -a 0 -i 34 -k AGT
+ -t 2.397726613 -s 0 -d -1 -p tcp -e 1540 -c 2 -a 0 -i 35 -k AGT 
- -t 2.397726613 -s 0 -d -1 -p tcp -e 1540 -c 2 -a 0 -i 35 -k AGT
h -t 2.397726613 -s 0 -d -1 -p tcp -e 1540 -c 2 -a 0 -i 35 -k AGT
+ -t 2.397726613 -s 0 -d 4 -p tcp -e 1540 -c 2 -a 0 -i 34 -k RTR 
- -t 2.397726613 -s 0 -d 4 -p tcp -e 1540 -c 2 -a 0 -i 34 -k RTR
h -t 2.397726613 -s 0 -d 4 -p tcp -e 1540 -c 2 -a 0 -i 34 -k RTR
+ -t 2.397726613 -s 0 -d 4 -p tcp -e 1540 -c 2 -a 0 -i 35 -k RTR 
- -t 2.397726613 -s 0 -d 4 -p tcp -e 1540 -c 2 -a 0 -i 35 -k RTR
h -t 2.397726613 -s 0 -d 4 -p tcp -e 1540 -c 2 -a 0 -i 35 -k RTR
+ -t 2.411612888 -s 4 -d 9 -p tcp -e 1540 -c 2 -a 0 -i 29 -k RTR 
- -t 2.411612888 -s 4 -d 9 -p tcp -e 1540 -c 2 -a 0 -i 29 -k RTR
h -t 2.411612888 -s 4 -d 9 -p tcp -e 1540 -c 2 -a 0 -i 29 -k RTR
+ -t 2.413509269 -s 4 -d 0 -p ack -e 40 -c 2 -a 0 -i 33 -k RTR 
- -t 2.413509269 -s 4 -d 0 -p ack -e 40 -c 2 -a 0 -i 33 -k RTR
h -t 2.413509269 -s 4 -d 0 -p ack -e 40 -c 2 -a 0 -i 33 -k RTR
r -t 2.427755221 -s 9 -d 9 -p tcp -e 1540 -c 2 -a 0 -i 21 -k AGT
+ -t 2.427755221 -s 9 -d -1 -p ack -e 40 -c 2 -a 0 -i 36 -k AGT 
- -t 2.427755221 -s 9 -d -1 -p ack -e 40 -c 2 -a 0 -i 36 -k AGT
h -t 2.427755221 -s 9 -d -1 -p ack -e 40 -c 2 -a 0 -i 36 -k AGT