r 2.010066561 _4_ RTR  --- 0 AODV 48 [0 ffffffff 0 800] ------- [0:255 -1:255 28 0] [0x2 3 2 [6 0] [3 6]] (REQUEST)
s 2.011440113 _9_ RTR  --- 0 AODV 48 [0 ffffffff 4 800] ------- [9:255 -1:255 29 0] [0x2 2 2 [5 0] [4 6]] (REQUEST)
r 2.012984772 _3_ RTR  --- 0 AODV 48 [0 ffffffff 9 800] ------- [9:255 -1:255 29 0] [0x2 2 2 [5 0] [4 6]] (REQUEST)
r 2.012985180 _4_ RTR  --- 0 AODV 48 [0 ffffffff 9 800] ------- [9:255 -1:255 29 0] [0x2 2 2 [5 0] [4 6]] (REQUEST)
s 2.013058492 _0_ RTR  --- 0 AODV 48 [0 ffffffff 4 800] ------- [0:255 -1:255 29 0] [0x2 2 2 [5 0] [4 6]] (REQUEST)
r 2.014549448 _0_ RTR  --- 0 AODV 44 [13a 0 4 800] ------- [4:255 0:255 30 0] [0x4 2 [9 4] 8.000000] (REPLY)
s 2.014549448 _0_ RTR  --- 0 tcp 40 [0 0 0 0] ------- [0:0 9:0 30 4] [0 0] 0 0
r 2.015962204 _4_ RTR  --- 0 AODV 48 [0 ffffffff 0 800] ------- [0:255 -1:255 29 0] [0x2 2 2 [5 0] [4 6]] (REQUEST)
r 2.017813717 _4_ RTR  --- 0 tcp 40 [13a 4 0 800] ------- [0:0 9:0 30 4] [0 0] 1 0
f 2.017813717 _4_ RTR  --- 0 tcp 40 [13a 4 0 800] ------- [0:0 9:0 29 9] [0 0] 1 0
r 2.019512108 _2_ RTR  --- 0 AODV 48 [0 ffffffff 8 800] ------- [8:255 -1:255 29 0] [0x2 2 2 [7 0] [2 6]] (REQUEST)
r 2.021509345 _9_ AGT  --- 0 tcp 40 [13a 9 4 800] ------- [0:0 9:0 29 9] [0 0] 2 0
s 2.021509345 _9_ AGT  --- 5 ack 40 [0 0 0 0] ------- [9:0 0:0 32 0] [0 0] 0 0
r 2.021509345 _9_ RTR  --- 5 ack 40 [0 0 0 0] ------- [9:0 0:0 32 0] [0 0] 0 0
s 2.021509345 _9_ RTR  --- 5 ack 40 [0 0 0 0] ------- [9:0 0:0 30 4] [0 0] 0 0
r 2.023915346 _4_ RTR  --- 5 ack 40 [13a 4 9 800] ------- [9:0 0:0 30 4] [0 0] 1 0
f 2.023915346 _4_ RTR  --- 5 ack 40 [13a 4 9 800] ------- [9:0 0:0 29 0] [0 0] 1 0
r 2.026341614 _0_ AGT  --- 5 ack 40 [13a 0 4 800] ------- [9:0 0:0 29 0] [0 0] 2 0
s 2.026341614 _0_ AGT  --- 6 tcp 1540 [0 0 0 0] ------- [0:0 9:0 32 0] [1 0] 0 0
r 2.026341614 _0_ RTR  --- 6 tcp 1540 [0 0 0 0] ------- [0:0 9:0 32 0] [1 0] 0 0
s 2.026341614 _0_ AGT  --- 7 tcp 1540 [0 0 0 0] ------- [0:0 9:0 32 0] [2 0] 0 0
r 2.026341614 _0_ RTR  --- 7 tcp 1540 [0 0 0 0] ------- [0:0 9:0 32 0] [2 0] 0 0
s 2.026341614 _0_ RTR  --- 6 tcp 1540 [0 0 0 0] ------- [0:0 9:0 30 4] [1 0] 0 0
s 2.026341614 _0_ RTR  --- 7 tcp 1540 [0 0 0 0] ------- [0:0 9:0 30 4] [2 0] 0 0
r 2.040707883 _4_ RTR  --- 6 tcp 1540 [13a 4 0 800] ------- [0:0 9:0 30 4] [1 0] 1 0
f 2.040707883 _4_ RTR  --- 6 tcp 1540 [13a 4 0 800] ------- [0:0 9:0 29 9] [1 0] 1 0
r 2.055600908 _4_ RTR  --- 7 tcp 1540 [13a 4 0 800] ------- [0:0 9:0 30 4] [2 0] 1 0
f 2.055600908 _4_ RTR  --- 7 tcp 1540 [13a 4 0 800] ------- [0:0 9:0 29 9] [2 0] 1 0
r 2.069746904 _9_ AGT  --- 6 tcp 1540 [13a 9 4 800] ------- [0:0 9:0 29 9] [1 0] 2 0
s 2.069746904 _9_ AGT  --- 8 ack 40 [0 0 0 0] ------- [9:0 0:0 32 0] [1 0] 0 0
r 2.069746904 _9_ RTR  --- 8 ack 40 [0 0 0 0] ------- [9:0 0:0 32 0] [1 0] 0 0
s 2.069746904 _9_ RTR  --- 8 ack 40 [0 0 0 0] ------- [9:0 0:0 30 4] [1 0] 0 0
r 2.083753564 _9_ AGT  --- 7 tcp 1540 [13a 9 4 800] ------- [0:0 9:0 29 9] [2 0] 2 0
s 2.083753564 _9_ AGT  --- 9 ack 40 [0 0 0 0] ------- [9:0 0:0 32 0] [2 0] 0 0
r 2.083753564 _9_ RTR  --- 9 ack 40 [0 0 0 0] ------- [9:0 0:0 32 0] [2 0] 0 0
s 2.083753564 _9_ RTR  --- 9 ack 40 [0 0 0 0] ------- [9:0 0:0 30 4] [2 0] 0 0
r 2.085619557 _4_ RTR  --- 8 ack 40 [13a 4 9 800] ------- [9:0 0:0 30 4] [1 0] 1 0
f 2.085619557 _4_ RTR  --- 8 ack 40 [13a 4 9 800] ------- [9:0 0:0 29 0] [1 0] 1 0
r 2.087585826 _0_ AGT  --- 8 ack 40 [13a 0 4 800] ------- [9:0 0:0 29 0] [1 0] 2 0
s 2.087585826 _0_ AGT  --- 10 tcp 1540 [0 0 0 0] ------- [0:0 9:0 32 0] [3 0] 0 0
r 2.087585826 _0_ RTR  --- 10 tcp 1540 [0 0 0 0] ------- [0:0 9:0 32 0] [3 0] 0 0
s 2.087585826 _0_ AGT  --- 11 tcp 1540 [0 0 0 0] ------- [0:0 9:0 32 0] [4 0] 0 0
r 2.087585826 _0_ RTR  --- 11 tcp 1540 [0 0 0 0] ------- [0:0 9:0 32 0] [4 0] 0 0
s 2.087585826 _0_ RTR  --- 10 tcp 1540 [0 0 0 0] ------- [0:0 9:0 30 4] [3 0] 0 0
s 2.087585826 _0_ RTR  --- 11 tcp 1540 [0 0 0 0] ------- [0:0 9:0 30 4] [4 0] 0 0
r 2.101592096 _4_ RTR  --- 10 tcp 1540 [13a 4 0 800] ------- [0:0 9:0 30 4] [3 0] 1 0
f 2.101592096 _4_ RTR  --- 10 tcp 1540 [13a 4 0 800] ------- [0:0 9:0 29 9] [3 0] 1 0
r 2.115539122 _4_ RTR  --- 11 tcp 1540 [13a 4 0 800] ------- [0:0 9:0 30 4] [4 0] 1 0
f 2.115539122 _4_ RTR  --- 11 tcp 1540 [13a 4 0 800] ------- [0:0 9:0 29 9] [4 0] 1 0
r 2.129465111 _9_ AGT  --- 10 tcp 1540 [13a 9 4 800] ------- [0:0 9:0 29 9] [3 0] 2 0
s 2.129465111 _9_ AGT  --- 12 ack 40 [0 0 0 0] ------- [9:0 0:0 32 0] [3 0] 0 0
r 2.129465111 _9_ RTR  --- 12 ack 40 [0 0 0 0] ------- [9:0 0:0 32 0] [3 0] 0 0
s 2.129465111 _9_ RTR  --- 12 ack 40 [0 0 0 0] ------- [9:0 0:0 30 4] [3 0] 0 0
r 2.131511098 _4_ RTR  --- 9 ack 40 [13a 4 9 800] ------- [9:0 0:0 30 4] [2 0] 1 0
f 2.131511098 _4_ RTR  --- 9 ack 40 [13a 4 9 800] ------- [9:0 0:0 29 0] [2 0] 1 0
r 2.133337748 _4_ RTR  --- 12 ack 40 [13a 4 9 800] ------- [9:0 0:0 30 4] [3 0] 1 0
f 2.133337748 _4_ RTR  --- 12 ack 40 [13a 4 9 800] ------- [9:0 0:0 29 0] [3 0] 1 0
r 2.147183734 _9_ AGT  --- 11 tcp 1540 [13a 9 4 800] ------- [0:0 9:0 29 9] [4 0] 2 0
s 2.147183734 _9_ AGT  --- 13 ack 40 [0 0 0 0] ------- [9:0 0:0 32 0] [4 0] 0 0
r 2.147183734 _9_ RTR  --- 13 ack 40 [0 0 0 0] ------- [9:0 0:0 32 0] [4 0] 0 0
s 2.147183734 _9_ RTR  --- 13 ack 40 [0 0 0 0] ------- [9:0 0:0 30 4] [4 0] 0 0
r 2.149149719 _4_ RTR  --- 13 ack 40 [13a 4 9 800] ------- [9:0 0:0 30 4] [4 0] 1 0
f 2.149149719 _4_ RTR  --- 13 ack 40 [13a 4 9 800] ------- [9:0 0:0 29 0] [4 0] 1 0
r 2.151215990 _0_ AGT  --- 9 ack 40 [13a 0 4 800] ------- [9:0 0:0 29 0] [2 0] 2 0
s 2.151215990 _0_ AGT  --- 14 tcp 1540 [0 0 0 0] ------- [0:0 9:0 32 0] [5 0] 0 0
r 2.151215990 _0_ RTR  --- 14 tcp 1540 [0 0 0 0] ------- [0:0 9:0 32 0] [5 0] 0 0
s 2.151215990 _0_ AGT  --- 15 tcp 1540 [0 0 0 0] ------- [0:0 9:0 32 0] [6 0] 0 0
r 2.151215990 _0_ RTR  --- 15 tcp 1540 [0 0 0 0] ------- [0:0 9:0 32 0] [6 0] 0 0
s 2.151215990 _0_ RTR  --- 14 tcp 1540 [0 0 0 0] ------- [0:0 9:0 30 4] [5 0] 0 0
s 2.151215990 _0_ RTR  --- 15 tcp 1540 [0 0 0 0] ------- [0:0 9:0 30 4] [6 0] 0 0
r 2.165462261 _4_ RTR  --- 14 tcp 1540 [13a 4 0 800] ------- [0:0 9:0 30 4] [5 0] 1 0
f 2.165462261 _4_ RTR  --- 14 tcp 1540 [13a 4 0 800] ------- [0:0 9:0 29 9] [5 0] 1 0
r 2.167368532 _0_ AGT  --- 12 ack 40 [13a 0 4 800] ------- [9:0 0:0 29 0] [3 0] 2 0
s 2.167368532 _0_ AGT  --- 16 tcp 1540 [0 0 0 0] ------- [0:0 9:0 32 0] [7 0] 0 0
r 2.167368532 _0_ RTR  --- 16 tcp 1540 [0 0 0 0] ------- [0:0 9:0 32 0] [7 0] 0 0
s 2.167368532 _0_ AGT  --- 17 tcp 1540 [0 0 0 0] ------- [0:0 9:0 32 0] [8 0] 0 0
r 2.167368532 _0_ RTR  --- 17 tcp 1540 [0 0 0 0] ------- [0:0 9:0 32 0] [8 0] 0 0
s 2.167368532 _0_ RTR  --- 16 tcp 1540 [0 0 0 0] ------- [0:0 9:0 30 4] [7 0] 0 0
s 2.167368532 _0_ RTR  --- 17 tcp 1540 [0 0 0 0] ------- [0:0 9:0 30 4] [8 0] 0 0
r 2.169355560 _0_ AGT  --- 13 ack 40 [13a 0 4 800] ------- [9:0 0:0 29 0] [4 0] 2 0
s 2.169355560 _0_ AGT  --- 18 tcp 1540 [0 0 0 0] ------- [0:0 9:0 32 0] [9 0] 0 0
r 2.169355560 _0_ RTR  --- 18 tcp 1540 [0 0 0 0] ------- [0:0 9:0 32 0] [9 0] 0 0
s 2.169355560 _0_ AGT  --- 19 tcp 1540 [0 0 0 0] ------- [0:0 9:0 32 0] [10 0] 0 0
r 2.169355560 _0_ RTR  --- 19 tcp 1540 [0 0 0 0] ------- [0:0 9:0 32 0] [10 0] 0 0
s 2.169355560 _0_ RTR  --- 18 tcp 1540 [0 0 0 0] ------- [0:0 9:0 30 4] [9 0] 0 0
s 2.169355560 _0_ RTR  --- 19 tcp 1540 [0 0 0 0] ------- [0:0 9:0 30 4] [10 0] 0 0
r 2.183202299 _9_ AGT  --- 14 tcp 1540 [13a 9 4 800] ------- [0:0 9:0 29 9] [5 0] 2 0
s 2.183202299 _9_ AGT  --- 20 ack 40 [0 0 0 0] ------- [9:0 0:0 32 0] [5 0] 0 0
r 2.183202299 _9_ RTR  --- 20 ack 40 [0 0 0 0] ------- [9:0 0:0 32 0] [5 0] 0 0
s 2.183202299 _9_ RTR  --- 20 ack 40 [0 0 0 0] ------- [9:0 0:0 30 4] [5 0] 0 0
r 2.185068280 _4_ RTR  --- 20 ack 40 [13a 4 9 800] ------- [9:0 0:0 30 4] [5 0] 1 0
f 2.185068280 _4_ RTR  --- 20 ack 40 [13a 4 9 800] ------- [9:0 0:0 29 0] [5 0] 1 0
r 2.199005083 _4_ RTR  --- 15 tcp 1540 [13a 4 0 800] ------- [0:0 9:0 30 4] [6 0] 1 0
f 2.199005083 _4_ RTR  --- 15 tcp 1540 [13a 4 0 800] ------- [0:0 9:0 29 9] [6 0] 1 0
r 2.212832111 _4_ RTR  --- 16 tcp 1540 [13a 4 0 800] ------- [0:0 9:0 30 4] [7 0] 1 0
f 2.212832111 _4_ RTR  --- 16 tcp 1540 [13a 4 0 800] ------- [0:0 9:0 29 9] [7 0] 1 0
r 2.226719141 _4_ RTR  --- 17 tcp 1540 [13a 4 0 800] ------- [0:0 9:0 30 4] [8 0] 1 0
f 2.226719141 _4_ RTR  --- 17 tcp 1540 [13a 4 0 800] ------- [0:0 9:0 29 9] [8 0] 1 0
r 2.228625413 _0_ AGT  --- 20 ack 40 [13a 0 4 800] ------- [9:0 0:0 29 0] [5 0] 2 0
s 2.228625413 _0_ AGT  --- 21 tcp 1540 [0 0 0 0] ------- [0:0 9:0 32 0] [11 0] 0 0
r 2.228625413 _0_ RTR  --- 21 tcp 1540 [0 0 0 0] ------- [0:0 9:0 32 0] [11 0] 0 0
s 2.228625413 _0_ AGT  --- 22 tcp 1540 [0 0 0 0] ------- [0:0 9:0 32 0] [12 0] 0 0
r 2.228625413 _0_ RTR  --- 22 tcp 1540 [0 0 0 0] ------- [0:0 9:0 32 0] [12 0] 0 0
s 2.228625413 _0_ RTR  --- 21 tcp 1540 [0 0 0 0] ------- [0:0 9:0 30 4] [11 0] 0 0
s 2.228625413 _0_ RTR  --- 22 tcp 1540 [0 0 0 0] ------- [0:0 9:0 30 4] [12 0] 0 0
r 2.242891685 _4_ RTR  --- 18 tcp 1540 [13a 4 0 800] ------- [0:0 9:0 30 4] [9 0] 1 0
f 2.242891685 _4_ RTR  --- 18 tcp 1540 [13a 4 0 800] ------- [0:0 9:0 29 9] [9 0] 1 0
r 2.256877658 _9_ AGT  --- 15 tcp 1540 [13a 9 4 800] ------- [0:0 9:0 29 9] [6 0] 2 0
s 2.256877658 _9_ AGT  --- 23 ack 40 [0 0 0 0] ------- [9:0 0:0 32 0] [6 0] 0 0
r 2.256877658 _9_ RTR  --- 23 ack 40 [0 0 0 0] ------- [9:0 0:0 32 0] [6 0] 0 0
s 2.256877658 _9_ RTR  --- 23 ack 40 [0 0 0 0] ------- [9:0 0:0 30 4] [6 0] 0 0
r 2.258723629 _4_ RTR  --- 23 ack 40 [13a 4 9 800] ------- [9:0 0:0 30 4] [6 0] 1 0
f 2.258723629 _4_ RTR  --- 23 ack 40 [13a 4 9 800] ------- [9:0 0:0 29 0] [6 0] 1 0
r 2.272569601 _9_ AGT  --- 16 tcp 1540 [13a 9 4 800] ------- [0:0 9:0 29 9] [7 0] 2 0
s 2.272569601 _9_ AGT  --- 24 ack 40 [0 0 0 0] ------- [9:0 0:0 32 0] [7 0] 0 0
r 2.272569601 _9_ RTR  --- 24 ack 40 [0 0 0 0] ------- [9:0 0:0 32 0] [7 0] 0 0
s 2.272569601 _9_ RTR  --- 24 ack 40 [0 0 0 0] ------- [9:0 0:0 30 4] [7 0] 0 0
r 2.274455570 _4_ RTR  --- 24 ack 40 [13a 4 9 800] ------- [9:0 0:0 30 4] [7 0] 1 0
f 2.274455570 _4_ RTR  --- 24 ack 40 [13a 4 9 800] ------- [9:0 0:0 29 0] [7 0] 1 0
r 2.288501539 _9_ AGT  --- 17 tcp 1540 [13a 9 4 800] ------- [0:0 9:0 29 9] [8 0] 2 0
s 2.288501539 _9_ AGT  --- 25 ack 40 [0 0 0 0] ------- [9:0 0:0 32 0] [8 0] 0 0
r 2.288501539 _9_ RTR  --- 25 ack 40 [0 0 0 0] ------- [9:0 0:0 32 0] [8 0] 0 0
s 2.288501539 _9_ RTR  --- 25 ack 40 [0 0 0 0] ------- [9:0 0:0 30 4] [8 0] 0 0
r 2.290347506 _4_ RTR  --- 25 ack 40 [13a 4 9 800] ------- [9:0 0:0 30 4] [8 0] 1 0
f 2.290347506 _4_ RTR  --- 25 ack 40 [13a 4 9 800] ------- [9:0 0:0 29 0] [8 0] 1 0
r 2.304324314 _4_ RTR  --- 19 tcp 1540 [13a 4 0 800] ------- [0:0 9:0 30 4] [10 0] 1 0
f 2.304324314 _4_ RTR  --- 19 tcp 1540 [13a 4 0 800] ------- [0:0 9:0 29 9] [10 0] 1 0
r 2.318390279 _9_ AGT  --- 18 tcp 1540 [13a 9 4 800] ------- [0:0 9:0 29 9] [9 0] 2 0
s 2.318390279 _9_ AGT  --- 26 ack 40 [0 0 0 0] ------- [9:0 0:0 32 0] [9 0] 0 0
r 2.318390279 _9_ RTR  --- 26 ack 40 [0 0 0 0] ------- [9:0 0:0 32 0] [9 0] 0 0
s 2.318390279 _9_ RTR  --- 26 ack 40 [0 0 0 0] ------- [9:0 0:0 30 4] [9 0] 0 0
r 2.320336243 _4_ RTR  --- 26 ack 40 [13a 4 9 800] ------- [9:0 0:0 30 4] [9 0] 1 0
f 2.320336243 _4_ RTR  --- 26 ack 40 [13a 4 9 800] ------- [9:0 0:0 29 0] [9 0] 1 0
r 2.334353051 _4_ RTR  --- 21 tcp 1540 [13a 4 0 800] ------- [0:0 9:0 30 4] [11 0] 1 0
f 2.334353051 _4_ RTR  --- 21 tcp 1540 [13a 4 0 800] ------- [0:0 9:0 29 9] [11 0] 1 0
r 2.348360083 _4_ RTR  --- 22 tcp 1540 [13a 4 0 800] ------- [0:0 9:0 30 4] [12 0] 1 0
f 2.348360083 _4_ RTR  --- 22 tcp 1540 [13a 4 0 800] ------- [0:0 9:0 29 9] [12 0] 1 0
r 2.350206358 _0_ AGT  --- 23 ack 40 [13a 0 4 800] ------- [9:0 0:0 29 0] [6 0] 2 0
s 2.350206358 _0_ AGT  --- 27 tcp 1540 [0 0 0 0] ------- [0:0 9:0 32 0] [13 0] 0 0
r 2.350206358 _0_ RTR  --- 27 tcp 1540 [0 0 0 0] ------- [0:0 9:0 32 0] [13 0] 0 0
s 2.350206358 _0_ AGT  --- 28 tcp 1540 [0 0 0 0] ------- [0:0 9:0 32 0] [14 0] 0 0
r 2.350206358 _0_ RTR  --- 28 tcp 1540 [0 0 0 0] ------- [0:0 9:0 32 0] [14 0] 0 0
s 2.350206358 _0_ RTR  --- 27 tcp 1540 [0 0 0 0] ------- [0:0 9:0 30 4] [13 0] 0 0
s 2.350206358 _0_ RTR  --- 28 tcp 1540 [0 0 0 0] ------- [0:0 9:0 30 4] [14 0] 0 0
r 2.352213390 _0_ AGT  --- 24 ack 40 [13a 0 4 800] ------- [9:0 0:0 29 0] [7 0] 2 0
s 2.352213390 _0_ AGT  --- 29 tcp 1540 [0 0 0 0] ------- [0:0 9:0 32 0] [15 0] 0 0
r 2.352213390 _0_ RTR  --- 29 tcp 1540 [0 0 0 0] ------- [0:0 9:0 32 0] [15 0] 0 0
s 2.352213390 _0_ AGT  --- 30 tcp 1540 [0 0 0 0] ------- [0:0 9:0 32 0] [16 0] 0 0
r 2.352213390 _0_ RTR  --- 30 tcp 1540 [0 0 0 0] ------- [0:0 9:0 32 0] [16 0] 0 0
s 2.352213390 _0_ RTR  --- 29 tcp 1540 [0 0 0 0] ------- [0:0 9:0 30 4] [15 0] 0 0
s 2.352213390 _0_ RTR  --- 30 tcp 1540 [0 0 0 0] ------- [0:0 9:0 30 4] [16 0] 0 0
r 2.354180423 _0_ AGT  --- 25 ack 40 [13a 0 4 800] ------- [9:0 0:0 29 0] [8 0] 2 0
s 2.354180423 _0_ AGT  --- 31 tcp 1540 [0 0 0 0] ------- [0:0 9:0 32 0] [17 0] 0 0
r 2.354180423 _0_ RTR  --- 31 tcp 1540 [0 0 0 0] ------- [0:0 9:0 32 0] [17 0] 0 0
s 2.354180423 _0_ AGT  --- 32 tcp 1540 [0 0 0 0] ------- [0:0 9:0 32 0] [18 0] 0 0
r 2.354180423 _0_ RTR  --- 32 tcp 1540 [0 0 0 0] ------- [0:0 9:0 32 0] [18 0] 0 0
s 2.354180423 _0_ RTR  --- 31 tcp 1540 [0 0 0 0] ------- [0:0 9:0 30 4] [17 0] 0 0
s 2.354180423 _0_ RTR  --- 32 tcp 1540 [0 0 0 0] ------- [0:0 9:0 30 4] [18 0] 0 0
r 2.368206697 _4_ RTR  --- 27 tcp 1540 [13a 4 0 800] ------- [0:0 9:0 30 4] [13 0] 1 0
f 2.368206697 _4_ RTR  --- 27 tcp 1540 [13a 4 0 800] ------- [0:0 9:0 29 9] [13 0] 1 0
r 2.382033731 _4_ RTR  --- 28 tcp 1540 [13a 4 0 800] ------- [0:0 9:0 30 4] [14 0] 1 0
f 2.382033731 _4_ RTR  --- 28 tcp 1540 [13a 4 0 800] ------- [0:0 9:0 29 9] [14 0] 1 0
r 2.395899686 _9_ AGT  --- 19 tcp 1540 [13a 9 4 800] ------- [0:0 9:0 29 9] [10 0] 2 0
s 2.395899686 _9_ AGT  --- 33 ack 40 [0 0 0 0] ------- [9:0 0:0 32 0] [10 0] 0 0
r 2.395899686 _9_ RTR  --- 33 ack 40 [0 0 0 0] ------- [9:0 0:0 32 0] [10 0] 0 0
s 2.395899686 _9_ RTR  --- 33 ack 40 [0 0 0 0] ------- [9:0 0:0 30 4] [10 0] 0 0
r 2.397726613 _0_ AGT  --- 26 ack 40 [13a 0 4 800] ------- [9:0 0:0 29 0] [9 0] 2 0
s 2.397726613 _0_ AGT  --- 34 tcp 1540 [0 0 0 0] ------- [0:0 9:0 32 0] [19 0] 0 0
r 2.397726613 _0_ RTR  --- 34 tcp 1540 [0 0 0 0] ------- [0:0 9:0 32 0] [19 0] 0 0
s 2.397726613 _0_ AGT  --- 35 tcp 1540 [0 0 0 0] ------- [0:0 9:0 32 0] [20 0] 0 0
r 2.397726613 _0_ RTR  --- 35 tcp 1540 [0 0 0 0] ------- [0:0 9:0 32 0] [20 0] 0 0
s 2.397726613 _0_ RTR  --- 34 tcp 1540 [0 0 0 0] ------- [0:0 9:0 30 4] [19 0] 0 0
s 2.397726613 _0_ RTR  --- 35 tcp 1540 [0 0 0 0] ------- [0:0 9:0 30 4] [20 0] 0 0
r 2.411612888 _4_ RTR  --- 29 tcp 1540 [13a 4 0 800] ------- [0:0 9:0 30 4] [15 0] 1 0
f 2.411612888 _4_ RTR  --- 29 tcp 1540 [13a 4 0 800] ------- [0:0 9:0 29 9] [15 0] 1 0
r 2.413509269 _4_ RTR  --- 33 ack 40 [13a 4 9 800] ------- [9:0 0:0 30 4] [10 0] 1 0
f 2.413509269 _4_ RTR  --- 33 ack 40 [13a 4 9 800] ------- [9:0 0:0 29 0] [10 0] 1 0
r 2.427755221 _9_ AGT  --- 21 tcp 1540 [13a 9 4 800] ------- [0:0 9:0 29 9] [11 0] 2 0
s 2.427755221 _9_ AGT  --- 36 ack 40 [0 0 0 0] ------- [9:0 0:0 32 0] [11 0] 0 0
r 2.427755221 _9_ RTR  --- 36 ack 40 [0 0 0 0] ------- [9:0 0:0 32 0] [11 0] 0 0
s 2.427755221 _9_ RTR  --- 36 ack 40 [0 0 0 0] ------- [9:0 0:0 30 4] [11 0] 0 0
r 2.429761171 _4_ RTR  --- 36 ack 40 [13a 4 9 800] ------- [9:0 0:0 30 4] [11 0] 1 0
f 2.429761171 _4_ RTR  --- 36 ack 40 [13a 4 9 800] ------- [9:0 0:0 29 0] [11 0] 1 0
r 2.443777983 _4_ RTR  --- 30 tcp 1540 [13a 4 0 800] ------- [0:0 9:0 30 4] [16 0] 1 0
f 2.443777983 _4_ RTR  --- 30 tcp 1540 [13a 4 0 800] ------- [0:0 9:0 29 9] [16 0] 1 0
r 2.457843931 _9_ AGT  --- 22 tcp 1540 [13a 9 4 800] ------- [0:0 9:0 29 9] [12 0] 2 0
s 2.457843931 _9_ AGT  --- 37 ack 40 [0 0 0 0] ------- [9:0 0:0 32 0] [12 0] 0 0
r 2.457843931 _9_ RTR  --- 37 ack 40 [0 0 0 0] ------- [9:0 0:0 32 0] [12 0] 0 0
s 2.457843931 _9_ RTR  --- 37 ack 40 [0 0 0 0] ------- [9:0 0:0 30 4] [12 0] 0 0
r 2.459809878 _4_ RTR  --- 37 ack 40 [13a 4 9 800] ------- [9:0 0:0 30 4] [12 0] 1 0
f 2.459809878 _4_ RTR  --- 37 ack 40 [13a 4 9 800] ------- [9:0 0:0 29 0] [12 0] 1 0
r 2.473755824 _9_ AGT  --- 27 tcp 1540 [13a 9 4 800] ------- [0:0 9:0 29 9] [13 0] 2 0
s 2.473755824 _9_ AGT  --- 38 ack 40 [0 0 0 0] ------- [9:0 0:0 32 0] [13 0] 0 0
r 2.473755824 _9_ RTR  --- 38 ack 40 [0 0 0 0] ------- [9:0 0:0 32 0] [13 0] 0 0
s 2.473755824 _9_ RTR  --- 38 ack 40 [0 0 0 0] ------- [9:0 0:0 30 4] [13 0] 0 0
r 2.487682416 _9_ AGT  --- 28 tcp 1540 [13a 9 4 800] ------- [0:0 9:0 29 9] [14 0] 2 0
s 2.487682416 _9_ AGT  --- 39 ack 40 [0 0 0 0] ------- [9:0 0:0 32 0] [14 0] 0 0
r 2.487682416 _9_ RTR  --- 39 ack 40 [0 0 0 0] ------- [9:0 0:0 32 0] [14 0] 0 0
s 2.487682416 _9_ RTR  --- 39 ack 40 [0 0 0 0] ------- [9:0 0:0 30 4] [14 0] 0 0
r 2.501689006 _9_ AGT  --- 29 tcp 1540 [13a 9 4 800] ------- [0:0 9:0 29 9] [15 0] 2 0
s 2.501689006 _9_ AGT  --- 40 ack 40 [0 0 0 0] ------- [9:0 0:0 32 0] [15 0] 0 0
r 2.501689006 _9_ RTR  --- 40 ack 40 [0 0 0 0] ------- [9:0 0:0 32 0] [15 0] 0 0
s 2.501689006 _9_ RTR  --- 40 ack 40 [0 0 0 0] ------- [9:0 0:0 30 4] [15 0] 0 0
r 2.503515930 _0_ AGT  --- 33 ack 40 [13a 0 4 800] ------- [9:0 0:0 29 0] [10 0] 2 0
s 2.503515930 _0_ AGT  --- 41 tcp 1540 [0 0 0 0] ------- [0:0 9:0 32 0] [21 0] 0 0
r 2.503515930 _0_ RTR  --- 41 tcp 1540 [0 0 0 0] ------- [0:0 9:0 32 0] [21 0] 0 0
s 2.503515930 _0_ AGT  --- 42 tcp 1540 [0 0 0 0] ------- [0:0 9:0 32 0] [22 0] 0 0
r 2.503515930 _0_ RTR  --- 42 tcp 1540 [0 0 0 0] ------- [0:0 9:0 32 0] [22 0] 0 0
s 2.503515930 _0_ RTR  --- 41 tcp 1540 [0 0 0 0] ------- [0:0 9:0 30 4] [21 0] 0 0
s 2.503515930 _0_ RTR  --- 42 tcp 1540 [0 0 0 0] ------- [0:0 9:0 30 4] [22 0] 0 0
r 2.517562208 _4_ RTR  --- 31 tcp 1540 [13a 4 0 800] ------- [0:0 9:0 30 4] [17 0] 1 0
f 2.517562208 _4_ RTR  --- 31 tcp 1540 [13a 4 0 800] ------- [0:0 9:0 29 9] [17 0] 1 0
r 2.519548485 _0_ AGT  --- 36 ack 40 [13a 0 4 800] ------- [9:0 0:0 29 0] [11 0] 2 0
s 2.519548485 _0_ AGT  --- 43 tcp 1540 [0 0 0 0] ------- [0:0 9:0 32 0] [23 0] 0 0
r 2.519548485 _0_ RTR  --- 43 tcp 1540 [0 0 0 0] ------- [0:0 9:0 32 0] [23 0] 0 0
s 2.519548485 _0_ AGT  --- 44 tcp 1540 [0 0 0 0] ------- [0:0 9:0 32 0] [24 0] 0 0
r 2.519548485 _0_ RTR  --- 44 tcp 1540 [0 0 0 0] ------- [0:0 9:0 32 0] [24 0] 0 0
s 2.519548485 _0_ RTR  --- 43 tcp 1540 [0 0 0 0] ------- [0:0 9:0 30 4] [23 0] 0 0
s 2.519548485 _0_ RTR  --- 44 tcp 1540 [0 0 0 0] ------- [0:0 9:0 30 4] [24 0] 0 0
r 2.533615183 _9_ AGT  --- 30 tcp 1540 [13a 9 4 800] ------- [0:0 9:0 29 9] [16 0] 2 0
s 2.533615183 _9_ AGT  --- 45 ack 40 [0 0 0 0] ------- [9:0 0:0 32 0] [16 0] 0 0
r 2.533615183 _9_ RTR  --- 45 ack 40 [0 0 0 0] ------- [9:0 0:0 32 0] [16 0] 0 0
s 2.533615183 _9_ RTR  --- 45 ack 40 [0 0 0 0] ------- [9:0 0:0 30 4] [16 0] 0 0
r 2.535442107 _0_ AGT  --- 37 ack 40 [13a 0 4 800] ------- [9:0 0:0 29 0] [12 0] 2 0
s 2.535442107 _0_ AGT  --- 46 tcp 1540 [0 0 0 0] ------- [0:0 9:0 32 0] [25 0] 0 0
r 2.535442107 _0_ RTR  --- 46 tcp 1540 [0 0 0 0] ------- [0:0 9:0 32 0] [25 0] 0 0
s 2.535442107 _0_ AGT  --- 47 tcp 1540 [0 0 0 0] ------- [0:0 9:0 32 0] [26 0] 0 0
r 2.535442107 _0_ RTR  --- 47 tcp 1540 [0 0 0 0] ------- [0:0 9:0 32 0] [26 0] 0 0
s 2.535442107 _0_ RTR  --- 46 tcp 1540 [0 0 0 0] ------- [0:0 9:0 30 4] [25 0] 0 0
s 2.535442107 _0_ RTR  --- 47 tcp 1540 [0 0 0 0] ------- [0:0 9:0 30 4] [26 0] 0 0
r 2.549368385 _4_ RTR  --- 32 tcp 1540 [13a 4 0 800] ------- [0:0 9:0 30 4] [18 0] 1 0
f 2.549368385 _4_ RTR  --- 32 tcp 1540 [13a 4 0 800] ------- [0:0 9:0 29 9] [18 0] 1 0
r 2.563214320 _9_ AGT  --- 31 tcp 1540 [13a 9 4 800] ------- [0:0 9:0 29 9] [17 0] 2 0
s 2.563214320 _9_ AGT  --- 48 ack 40 [0 0 0 0] ------- [9:0 0:0 32 0] [17 0] 0 0
r 2.563214320 _9_ RTR  --- 48 ack 40 [0 0 0 0] ------- [9:0 0:0 32 0] [17 0] 0 0
s 2.563214320 _9_ RTR  --- 48 ack 40 [0 0 0 0] ------- [9:0 0:0 30 4] [17 0] 0 0
r 2.565080253 _4_ RTR  --- 38 ack 40 [13a 4 9 800] ------- [9:0 0:0 30 4] [13 0] 1 0
f 2.565080253 _4_ RTR  --- 38 ack 40 [13a 4 9 800] ------- [9:0 0:0 29 0] [13 0] 1 0
r 2.579046186 _9_ AGT  --- 32 tcp 1540 [13a 9 4 800] ------- [0:0 9:0 29 9] [18 0] 2 0
s 2.579046186 _9_ AGT  --- 49 ack 40 [0 0 0 0] ------- [9:0 0:0 32 0] [18 0] 0 0
r 2.579046186 _9_ RTR  --- 49 ack 40 [0 0 0 0] ------- [9:0 0:0 32 0] [18 0] 0 0
s 2.579046186 _9_ RTR  --- 49 ack 40 [0 0 0 0] ------- [9:0 0:0 30 4] [18 0] 0 0
r 2.581252117 _4_ RTR  --- 39 ack 40 [13a 4 9 800] ------- [9:0 0:0 30 4] [14 0] 1 0
f 2.581252117 _4_ RTR  --- 39 ack 40 [13a 4 9 800] ------- [9:0 0:0 29 0] [14 0] 1 0
r 2.583218691 _4_ RTR  --- 40 ack 40 [13a 4 9 800] ------- [9:0 0:0 30 4] [15 0] 1 0
f 2.583218691 _4_ RTR  --- 40 ack 40 [13a 4 9 800] ------- [9:0 0:0 29 0] [15 0] 1 0
r 2.585144970 _0_ AGT  --- 38 ack 40 [13a 0 4 800] ------- [9:0 0:0 29 0] [13 0] 2 0
s 2.585144970 _0_ AGT  --- 50 tcp 1540 [0 0 0 0] ------- [0:0 9:0 32 0] [27 0] 0 0
r 2.585144970 _0_ RTR  --- 50 tcp 1540 [0 0 0 0] ------- [0:0 9:0 32 0] [27 0] 0 0
s 2.585144970 _0_ AGT  --- 51 tcp 1540 [0 0 0 0] ------- [0:0 9:0 32 0] [28 0] 0 0
r 2.585144970 _0_ RTR  --- 51 tcp 1540 [0 0 0 0] ------- [0:0 9:0 32 0] [28 0] 0 0
s 2.585144970 _0_ RTR  --- 50 tcp 1540 [0 0 0 0] ------- [0:0 9:0 30 4] [27 0] 0 0
s 2.585144970 _0_ RTR  --- 51 tcp 1540 [0 0 0 0] ------- [0:0 9:0 30 4] [28 0] 0 0
r 2.599111249 _4_ RTR  --- 34 tcp 1540 [13a 4 0 800] ------- [0:0 9:0 30 4] [19 0] 1 0
f 2.599111249 _4_ RTR  --- 34 tcp 1540 [13a 4 0 800] ------- [0:0 9:0 29 9] [19 0] 1 0
r 2.612978288 _4_ RTR  --- 35 tcp 1540 [13a 4 0 800] ------- [0:0 9:0 30 4] [20 0] 1 0
f 2.612978288 _4_ RTR  --- 35 tcp 1540 [13a 4 0 800] ------- [0:0 9:0 29 9] [20 0] 1 0
r 2.615164568 _0_ AGT  --- 39 ack 40 [13a 0 4 800] ------- [9:0 0:0 29 0] [14 0] 2 0
s 2.615164568 _0_ AGT  --- 52 tcp 1540 [0 0 0 0] ------- [0:0 9:0 32 0] [29 0] 0 0
r 2.615164568 _0_ RTR  --- 52 tcp 1540 [0 0 0 0] ------- [0:0 9:0 32 0] [29 0] 0 0
s 2.615164568 _0_ AGT  --- 53 tcp 1540 [0 0 0 0] ------- [0:0 9:0 32 0] [30 0] 0 0
r 2.615164568 _0_ RTR  --- 53 tcp 1540 [0 0 0 0] ------- [0:0 9:0 32 0] [30 0] 0 0
s 2.615164568 _0_ RTR  --- 52 tcp 1540 [0 0 0 0] ------- [0:0 9:0 30 4] [29 0] 0 0
s 2.615164568 _0_ RTR  --- 53 tcp 1540 [0 0 0 0] ------- [0:0 9:0 30 4] [30 0] 0 0
r 2.629110847 _4_ RTR  --- 41 tcp 1540 [13a 4 0 800] ------- [0:0 9:0 30 4] [21 0] 1 0
f 2.629110847 _4_ RTR  --- 41 tcp 1540 [13a 4 0 800] ------- [0:0 9:0 29 9] [21 0] 1 0
r 2.642937887 _4_ RTR  --- 42 tcp 1540 [13a 4 0 800] ------- [0:0 9:0 30 4] [22 0] 1 0
f 2.642937887 _4_ RTR  --- 42 tcp 1540 [13a 4 0 800] ------- [0:0 9:0 29 9] [22 0] 1 0
r 2.656844927 _4_ RTR  --- 43 tcp 1540 [13a 4 0 800] ------- [0:0 9:0 30 4] [23 0] 1 0
f 2.656844927 _4_ RTR  --- 43 tcp 1540 [13a 4 0 800] ------- [0:0 9:0 29 9] [23 0] 1 0
r 2.658831207 _0_ AGT  --- 40 ack 40 [13a 0 4 800] ------- [9:0 0:0 29 0] [15 0] 2 0
s 2.658831207 _0_ AGT  --- 54 tcp 1540 [0 0 0 0] ------- [0:0 9:0 32 0] [31 0] 0 0
r 2.658831207 _0_ RTR  --- 54 tcp 1540 [0 0 0 0] ------- [0:0 9:0 32 0] [31 0] 0 0
s 2.658831207 _0_ AGT  --- 55 tcp 1540 [0 0 0 0] ------- [0:0 9:0 32 0] [32 0] 0 0
r 2.658831207 _0_ RTR  --- 55 tcp 1540 [0 0 0 0] ------- [0:0 9:0 32 0] [32 0] 0 0
s 2.658831207 _0_ RTR  --- 54 tcp 1540 [0 0 0 0] ------- [0:0 9:0 30 4] [31 0] 0 0
s 2.658831207 _0_ RTR  --- 55 tcp 1540 [0 0 0 0] ------- [0:0 9:0 30 4] [32 0] 0 0
r 2.672957888 _9_ AGT  --- 34 tcp 1540 [13a 9 4 800] ------- [0:0 9:0 29 9] [19 0] 2 0
s 2.672957888 _9_ AGT  --- 56 ack 40 [0 0 0 0] ------- [9:0 0:0 32 0] [19 0] 0 0
r 2.672957888 _9_ RTR  --- 56 ack 40 [0 0 0 0] ------- [9:0 0:0 32 0] [19 0] 0 0
s 2.672957888 _9_ RTR  --- 56 ack 40 [0 0 0 0] ------- [9:0 0:0 30 4] [19 0] 0 0
r 2.674823808 _4_ RTR  --- 45 ack 40 [13a 4 9 800] ------- [9:0 0:0 30 4] [16 0] 1 0
f 2.674823808 _4_ RTR  --- 45 ack 40 [13a 4 9 800] ------- [9:0 0:0 29 0] [16 0] 1 0
r 2.688800630 _4_ RTR  --- 44 tcp 1540 [13a 4 0 800] ------- [0:0 9:0 30 4] [24 0] 1 0
f 2.688800630 _4_ RTR  --- 44 tcp 1540 [13a 4 0 800] ------- [0:0 9:0 29 9] [24 0] 1 0
r 2.702806547 _9_ AGT  --- 35 tcp 1540 [13a 9 4 800] ------- [0:0 9:0 29 9] [20 0] 2 0
s 2.702806547 _9_ AGT  --- 57 ack 40 [0 0 0 0] ------- [9:0 0:0 32 0] [20 0] 0 0
r 2.702806547 _9_ RTR  --- 57 ack 40 [0 0 0 0] ------- [9:0 0:0 32 0] [20 0] 0 0
s 2.702806547 _9_ RTR  --- 57 ack 40 [0 0 0 0] ------- [9:0 0:0 30 4] [20 0] 0 0
r 2.716673102 _9_ AGT  --- 41 tcp 1540 [13a 9 4 800] ------- [0:0 9:0 29 9] [21 0] 2 0
s 2.716673102 _9_ AGT  --- 58 ack 40 [0 0 0 0] ------- [9:0 0:0 32 0] [21 0] 0 0
r 2.716673102 _9_ RTR  --- 58 ack 40 [0 0 0 0] ------- [9:0 0:0 32 0] [21 0] 0 0
s 2.716673102 _9_ RTR  --- 58 ack 40 [0 0 0 0] ------- [9:0 0:0 30 4] [21 0] 0 0
r 2.718519016 _4_ RTR  --- 48 ack 40 [13a 4 9 800] ------- [9:0 0:0 30 4] [17 0] 1 0
f 2.718519016 _4_ RTR  --- 48 ack 40 [13a 4 9 800] ------- [9:0 0:0 29 0] [17 0] 1 0
r 2.732695840 _4_ RTR  --- 46 tcp 1540 [13a 4 0 800] ------- [0:0 9:0 30 4] [25 0] 1 0
f 2.732695840 _4_ RTR  --- 46 tcp 1540 [13a 4 0 800] ------- [0:0 9:0 29 9] [25 0] 1 0
r 2.746602882 _4_ RTR  --- 47 tcp 1540 [13a 4 0 800] ------- [0:0 9:0 30 4] [26 0] 1 0
f 2.746602882 _4_ RTR  --- 47 tcp 1540 [13a 4 0 800] ------- [0:0 9:0 29 9] [26 0] 1 0
r 2.760528792 _9_ AGT  --- 42 tcp 1540 [13a 9 4 800] ------- [0:0 9:0 29 9] [22 0] 2 0
s 2.760528792 _9_ AGT  --- 59 ack 40 [0 0 0 0] ------- [9:0 0:0 32 0] [22 0] 0 0
r 2.760528792 _9_ RTR  --- 59 ack 40 [0 0 0 0] ------- [9:0 0:0 32 0] [22 0] 0 0
s 2.760528792 _9_ RTR  --- 59 ack 40 [0 0 0 0] ------- [9:0 0:0 30 4] [22 0] 0 0
r 2.774355337 _9_ AGT  --- 43 tcp 1540 [13a 9 4 800] ------- [0:0 9:0 29 9] [23 0] 2 0
s 2.774355337 _9_ AGT  --- 60 ack 40 [0 0 0 0] ------- [9:0 0:0 32 0] [23 0] 0 0
r 2.774355337 _9_ RTR  --- 60 ack 40 [0 0 0 0] ------- [9:0 0:0 32 0] [23 0] 0 0
s 2.774355337 _9_ RTR  --- 60 ack 40 [0 0 0 0] ------- [9:0 0:0 30 4] [23 0] 0 0
r 2.776281244 _4_ RTR  --- 49 ack 40 [13a 4 9 800] ------- [9:0 0:0 30 4] [18 0] 1 0
f 2.776281244 _4_ RTR  --- 49 ack 40 [13a 4 9 800] ------- [9:0 0:0 29 0] [18 0] 1 0
r 2.778427786 _4_ RTR  --- 56 ack 40 [13a 4 9 800] ------- [9:0 0:0 30 4] [19 0] 1 0
f 2.778427786 _4_ RTR  --- 56 ack 40 [13a 4 9 800] ------- [9:0 0:0 29 0] [19 0] 1 0
r 2.780414068 _0_ AGT  --- 45 ack 40 [13a 0 4 800] ------- [9:0 0:0 29 0] [16 0] 2 0
s 2.780414068 _0_ AGT  --- 61 tcp 1540 [0 0 0 0] ------- [0:0 9:0 32 0] [33 0] 0 0
r 2.780414068 _0_ RTR  --- 61 tcp 1540 [0 0 0 0] ------- [0:0 9:0 32 0] [33 0] 0 0
s 2.780414068 _0_ AGT  --- 62 tcp 1540 [0 0 0 0] ------- [0:0 9:0 32 0] [34 0] 0 0
r 2.780414068 _0_ RTR  --- 62 tcp 1540 [0 0 0 0] ------- [0:0 9:0 32 0] [34 0] 0 0
s 2.780414068 _0_ RTR  --- 61 tcp 1540 [0 0 0 0] ------- [0:0 9:0 30 4] [33 0] 0 0
s 2.780414068 _0_ RTR  --- 62 tcp 1540 [0 0 0 0] ------- [0:0 9:0 30 4] [34 0] 0 0
r 2.794300735 _9_ AGT  --- 44 tcp 1540 [13a 9 4 800] ------- [0:0 9:0 29 9] [24 0] 2 0
s 2.794300735 _9_ AGT  --- 63 ack 40 [0 0 0 0] ------- [9:0 0:0 32 0] [24 0] 0 0
r 2.794300735 _9_ RTR  --- 63 ack 40 [0 0 0 0] ------- [9:0 0:0 32 0] [24 0] 0 0
s 2.794300735 _9_ RTR  --- 63 ack 40 [0 0 0 0] ------- [9:0 0:0 30 4] [24 0] 0 0
r 2.796366639 _4_ RTR  --- 57 ack 40 [13a 4 9 800] ------- [9:0 0:0 30 4] [20 0] 1 0
f 2.796366639 _4_ RTR  --- 57 ack 40 [13a 4 9 800] ------- [9:0 0:0 29 0] [20 0] 1 0
r 2.798272922 _0_ AGT  --- 48 ack 40 [13a 0 4 800] ------- [9:0 0:0 29 0] [17 0] 2 0
s 2.798272922 _0_ AGT  --- 64 tcp 1540 [0 0 0 0] ------- [0:0 9:0 32 0] [35 0] 0 0
r 2.798272922 _0_ RTR  --- 64 tcp 1540 [0 0 0 0] ------- [0:0 9:0 32 0] [35 0] 0 0
s 2.798272922 _0_ AGT  --- 65 tcp 1540 [0 0 0 0] ------- [0:0 9:0 32 0] [36 0] 0 0
r 2.798272922 _0_ RTR  --- 65 tcp 1540 [0 0 0 0] ------- [0:0 9:0 32 0] [36 0] 0 0
s 2.798272922 _0_ RTR  --- 64 tcp 1540 [0 0 0 0] ------- [0:0 9:0 30 4] [35 0] 0 0
s 2.798272922 _0_ RTR  --- 65 tcp 1540 [0 0 0 0] ------- [0:0 9:0 30 4] [36 0] 0 0
r 2.812159205 _4_ RTR  --- 50 tcp 1540 [13a 4 0 800] ------- [0:0 9:0 30 4] [27 0] 1 0
f 2.812159205 _4_ RTR  --- 50 tcp 1540 [13a 4 0 800] ------- [0:0 9:0 29 9] [27 0] 1 0
r 2.826045108 _9_ AGT  --- 46 tcp 1540 [13a 9 4 800] ------- [0:0 9:0 29 9] [25 0] 2 0
s 2.826045108 _9_ AGT  --- 66 ack 40 [0 0 0 0] ------- [9:0 0:0 32 0] [25 0] 0 0
r 2.826045108 _9_ RTR  --- 66 ack 40 [0 0 0 0] ------- [9:0 0:0 32 0] [25 0] 0 0
s 2.826045108 _9_ RTR  --- 66 ack 40 [0 0 0 0] ------- [9:0 0:0 30 4] [25 0] 0 0
r 2.839891641 _9_ AGT  --- 47 tcp 1540 [13a 9 4 800] ------- [0:0 9:0 29 9] [26 0] 2 0
s 2.839891641 _9_ AGT  --- 67 ack 40 [0 0 0 0] ------- [9:0 0:0 32 0] [26 0] 0 0
r 2.839891641 _9_ RTR  --- 67 ack 40 [0 0 0 0] ------- [9:0 0:0 32 0] [26 0] 0 0
s 2.839891641 _9_ RTR  --- 67 ack 40 [0 0 0 0] ------- [9:0 0:0 30 4] [26 0] 0 0
r 2.841718558 _0_ AGT  --- 49 ack 40 [13a 0 4 800] ------- [9:0 0:0 29 0] [18 0] 2 0
s 2.841718558 _0_ AGT  --- 68 tcp 1540 [0 0 0 0] ------- [0:0 9:0 32 0] [37 0] 0 0
r 2.841718558 _0_ RTR  --- 68 tcp 1540 [0 0 0 0] ------- [0:0 9:0 32 0] [37 0] 0 0
s 2.841718558 _0_ AGT  --- 69 tcp 1540 [0 0 0 0] ------- [0:0 9:0 32 0] [38 0] 0 0
r 2.841718558 _0_ RTR  --- 69 tcp 1540 [0 0 0 0] ------- [0:0 9:0 32 0] [38 0] 0 0
s 2.841718558 _0_ RTR  --- 68 tcp 1540 [0 0 0 0] ------- [0:0 9:0 30 4] [37 0] 0 0
s 2.841718558 _0_ RTR  --- 69 tcp 1540 [0 0 0 0] ------- [0:0 9:0 30 4] [38 0] 0 0
r 2.843625603 _0_ AGT  --- 56 ack 40 [13a 0 4 800] ------- [9:0 0:0 29 0] [19 0] 2 0
s 2.843625603 _0_ AGT  --- 70 tcp 1540 [0 0 0 0] ------- [0:0 9:0 32 0] [39 0] 0 0
r 2.843625603 _0_ RTR  --- 70 tcp 1540 [0 0 0 0] ------- [0:0 9:0 32 0] [39 0] 0 0
s 2.843625603 _0_ RTR  --- 70 tcp 1540 [0 0 0 0] ------- [0:0 9:0 30 4] [39 0] 0 0
r 2.857771887 _4_ RTR  --- 51 tcp 1540 [13a 4 0 800] ------- [0:0 9:0 30 4] [28 0] 1 0
f 2.857771887 _4_ RTR  --- 51 tcp 1540 [13a 4 0 800] ------- [0:0 9:0 29 9] [28 0] 1 0
r 2.859838171 _0_ AGT  --- 57 ack 40 [13a 0 4 800] ------- [9:0 0:0 29 0] [20 0] 2 0
s 2.859838171 _0_ AGT  --- 71 tcp 1540 [0 0 0 0] ------- [0:0 9:0 32 0] [40 0] 0 0