s 0.010000000 _0_ AGT  --- 0 tcp 40 [0 0 0 0] ------- [0:0 9:0 32 0] [0 0] 0 0
r 0.010000000 _0_ RTR  --- 0 tcp 40 [0 0 0 0] ------- [0:0 9:0 32 0] [0 0] 0 0
s 0.010000000 _1_ AGT  --- 1 tcp 40 [0 0 0 0] ------- [1:0 8:0 32 0] [0 0] 0 0
r 0.010000000 _1_ RTR  --- 1 tcp 40 [0 0 0 0] ------- [1:0 8:0 32 0] [0 0] 0 0
s 0.010000000 _2_ AGT  --- 2 tcp 40 [0 0 0 0] ------- [2:0 7:0 32 0] [0 0] 0 0
r 0.010000000 _2_ RTR  --- 2 tcp 40 [0 0 0 0] ------- [2:0 7:0 32 0] [0 0] 0 0
s 0.010000000 _3_ AGT  --- 3 tcp 40 [0 0 0 0] ------- [3:0 6:0 32 0] [0 0] 0 0
r 0.010000000 _3_ RTR  --- 3 tcp 40 [0 0 0 0] ------- [3:0 6:0 32 0] [0 0] 0 0
s 0.010000000 _4_ AGT  --- 4 tcp 40 [0 0 0 0] ------- [4:0 5:0 32 0] [0 0] 0 0
r 0.010000000 _4_ RTR  --- 4 tcp 40 [0 0 0 0] ------- [4:0 5:0 32 0] [0 0] 0 0
s 0.010000000 _0_ RTR  --- 0 AODV 48 [0 0 0 0] ------- [0:255 -1:255 30 0] [0x2 1 1 [9 0] [0 4]] (REQUEST)
s 0.010000000 _1_ RTR  --- 0 AODV 48 [0 0 0 0] ------- [1:255 -1:255 30 0] [0x2 1 1 [8 0] [1 4]] (REQUEST)
s 0.010000000 _2_ RTR  --- 0 AODV 48 [0 0 0 0] ------- [2:255 -1:255 30 0] [0x2 1 1 [7 0] [2 4]] (REQUEST)
s 0.010000000 _3_ RTR  --- 0 AODV 48 [0 0 0 0] ------- [3:255 -1:255 30 0] [0x2 1 1 [6 0] [3 4]] (REQUEST)
s 0.010000000 _4_ RTR  --- 0 AODV 48 [0 0 0 0] ------- [4:255 -1:255 30 0] [0x2 1 1 [5 0] [4 4]] (REQUEST)
r 0.010948750 _4_ RTR  --- 0 AODV 48 [0 ffffffff 0 800] ------- [0:255 -1:255 30 0] [0x2 1 1 [9 0] [0 4]] (REQUEST)
r 0.012207186 _3_ RTR  --- 0 AODV 48 [0 ffffffff 4 800] ------- [4:255 -1:255 30 0] [0x2 1 1 [5 0] [4 4]] (REQUEST)
r 0.012207459 _9_ RTR  --- 0 AODV 48 [0 ffffffff 4 800] ------- [4:255 -1:255 30 0] [0x2 1 1 [5 0] [4 4]] (REQUEST)
r 0.012207499 _0_ RTR  --- 0 AODV 48 [0 ffffffff 4 800] ------- [4:255 -1:255 30 0] [0x2 1 1 [5 0] [4 4]] (REQUEST)
r 0.013345478 _9_ RTR  --- 0 AODV 48 [0 ffffffff 3 800] ------- [3:255 -1:255 30 0] [0x2 1 1 [6 0] [3 4]] (REQUEST)
s 0.013345542 _9_ RTR  --- 0 AODV 48 [0 ffffffff 4 800] ------- [9:255 -1:255 29 0] [0x2 2 1 [5 0] [4 4]] (REQUEST)
r 0.013345623 _4_ RTR  --- 0 AODV 48 [0 ffffffff 3 800] ------- [3:255 -1:255 30 0] [0x2 1 1 [6 0] [3 4]] (REQUEST)
s 0.014287012 _4_ RTR  --- 0 AODV 48 [0 ffffffff 3 800] ------- [4:255 -1:255 29 0] [0x2 2 1 [6 0] [3 4]] (REQUEST)
r 0.014613833 _3_ RTR  --- 0 AODV 48 [0 ffffffff 9 800] ------- [9:255 -1:255 29 0] [0x2 2 1 [5 0] [4 4]] (REQUEST)
r 0.014614251 _4_ RTR  --- 0 AODV 48 [0 ffffffff 9 800] ------- [9:255 -1:255 29 0] [0x2 2 1 [5 0] [4 4]] (REQUEST)
s 0.015093530 _9_ RTR  --- 0 AODV 48 [0 ffffffff 3 800] ------- [9:255 -1:255 29 0] [0x2 2 1 [6 0] [3 4]] (REQUEST)
r 0.015712688 _3_ RTR  --- 0 AODV 48 [0 ffffffff 4 800] ------- [4:255 -1:255 29 0] [0x2 2 1 [6 0] [3 4]] (REQUEST)
r 0.015712961 _9_ RTR  --- 0 AODV 48 [0 ffffffff 4 800] ------- [4:255 -1:255 29 0] [0x2 2 1 [6 0] [3 4]] (REQUEST)
r 0.015713001 _0_ RTR  --- 0 AODV 48 [0 ffffffff 4 800] ------- [4:255 -1:255 29 0] [0x2 2 1 [6 0] [3 4]] (REQUEST)
r 0.016631252 _3_ RTR  --- 0 AODV 48 [0 ffffffff 9 800] ------- [9:255 -1:255 29 0] [0x2 2 1 [6 0] [3 4]] (REQUEST)
r 0.016631670 _4_ RTR  --- 0 AODV 48 [0 ffffffff 9 800] ------- [9:255 -1:255 29 0] [0x2 2 1 [6 0] [3 4]] (REQUEST)
r 0.018094610 _8_ RTR  --- 0 AODV 48 [0 ffffffff 2 800] ------- [2:255 -1:255 30 0] [0x2 1 1 [7 0] [2 4]] (REQUEST)
s 0.018607863 _3_ RTR  --- 0 AODV 48 [0 ffffffff 4 800] ------- [3:255 -1:255 29 0] [0x2 2 1 [5 0] [4 4]] (REQUEST)
s 0.019311985 _4_ RTR  --- 0 AODV 48 [0 ffffffff 0 800] ------- [4:255 -1:255 29 0] [0x2 2 1 [9 0] [0 4]] (REQUEST)
r 0.019956155 _9_ RTR  --- 0 AODV 48 [0 ffffffff 3 800] ------- [3:255 -1:255 29 0] [0x2 2 1 [5 0] [4 4]] (REQUEST)
r 0.019956300 _4_ RTR  --- 0 AODV 48 [0 ffffffff 3 800] ------- [3:255 -1:255 29 0] [0x2 2 1 [5 0] [4 4]] (REQUEST)
s 0.020804776 _0_ RTR  --- 0 AODV 48 [0 ffffffff 4 800] ------- [0:255 -1:255 29 0] [0x2 2 1 [5 0] [4 4]] (REQUEST)
s 0.020899489 _0_ RTR  --- 0 AODV 48 [0 ffffffff 4 800] ------- [0:255 -1:255 28 0] [0x2 3 1 [6 0] [3 4]] (REQUEST)
r 0.021394737 _3_ RTR  --- 0 AODV 48 [0 ffffffff 4 800] ------- [4:255 -1:255 29 0] [0x2 2 1 [9 0] [0 4]] (REQUEST)
r 0.021395009 _9_ RTR  --- 0 AODV 48 [0 ffffffff 4 800] ------- [4:255 -1:255 29 0] [0x2 2 1 [9 0] [0 4]] (REQUEST)
s 0.021395009 _9_ RTR  --- 0 AODV 44 [0 0 0 0] ------- [9:255 0:255 30 4] [0x4 1 [9 4] 10.000000] (REPLY)
r 0.021395049 _0_ RTR  --- 0 AODV 48 [0 ffffffff 4 800] ------- [4:255 -1:255 29 0] [0x2 2 1 [9 0] [0 4]] (REQUEST)
r 0.022333799 _4_ RTR  --- 0 AODV 48 [0 ffffffff 0 800] ------- [0:255 -1:255 29 0] [0x2 2 1 [5 0] [4 4]] (REQUEST)
r 0.023311799 _4_ RTR  --- 0 AODV 48 [0 ffffffff 0 800] ------- [0:255 -1:255 28 0] [0x2 3 1 [6 0] [3 4]] (REQUEST)
s 0.026715283 _8_ RTR  --- 0 AODV 48 [0 ffffffff 2 800] ------- [8:255 -1:255 29 0] [0x2 2 1 [7 0] [2 4]] (REQUEST)
r 0.028034234 _4_ RTR  --- 0 AODV 44 [13a 4 9 800] ------- [9:255 0:255 30 4] [0x4 1 [9 4] 10.000000] (REPLY)
f 0.028034234 _4_ RTR  --- 0 AODV 44 [13a 4 9 800] ------- [9:255 0:255 29 0] [0x4 2 [9 4] 10.000000] (REPLY)
s 0.029017055 _3_ RTR  --- 0 AODV 48 [0 ffffffff 4 800] ------- [3:255 -1:255 28 0] [0x2 3 1 [9 0] [0 4]] (REQUEST)
r 0.029517736 _2_ RTR  --- 0 AODV 48 [0 ffffffff 8 800] ------- [8:255 -1:255 29 0] [0x2 2 1 [7 0] [2 4]] (REQUEST)
r 0.031368962 _9_ RTR  --- 0 AODV 48 [0 ffffffff 3 800] ------- [3:255 -1:255 28 0] [0x2 3 1 [9 0] [0 4]] (REQUEST)
r 0.031369107 _4_ RTR  --- 0 AODV 48 [0 ffffffff 3 800] ------- [3:255 -1:255 28 0] [0x2 3 1 [9 0] [0 4]] (REQUEST)
M 1.00000 0 (986.00, 784.00, 0.00), (865.00, 480.00), 5.00
M 1.00000 1 (367.00, 213.00, 0.00), (958.00, 679.00), 4.00
M 1.00000 2 (750.00, 567.00, 0.00), (603.00, 752.00), 4.00
M 1.00000 3 (696.00, 912.00, 0.00), (9.00, 116.00), 3.00
M 1.00000 4 (824.00, 940.00, 0.00), (195.00, 285.00), 6.00
M 1.00000 5 (212.00, 852.00, 0.00), (759.00, 965.00), 10.00
M 1.00000 6 (349.00, 795.00, 0.00), (467.00, 829.00), 5.00
M 1.00000 7 (387.00, 956.00, 0.00), (880.00, 384.00), 0.00
M 1.00000 8 (740.00, 387.00, 0.00), (795.00, 759.00), 10.00
M 1.00000 9 (628.00, 857.00, 0.00), (843.00, 942.00), 7.00
s 2.000000000 _0_ RTR  --- 0 AODV 48 [0 0 0 0] ------- [0:255 -1:255 30 0] [0x2 1 2 [9 0] [0 6]] (REQUEST)
s 2.000000000 _1_ RTR  --- 0 AODV 48 [0 0 0 0] ------- [1:255 -1:255 30 0] [0x2 1 2 [8 0] [1 6]] (REQUEST)
s 2.000000000 _2_ RTR  --- 0 AODV 48 [0 0 0 0] ------- [2:255 -1:255 30 0] [0x2 1 2 [7 0] [2 6]] (REQUEST)
s 2.000000000 _3_ RTR  --- 0 AODV 48 [0 0 0 0] ------- [3:255 -1:255 30 0] [0x2 1 2 [6 0] [3 6]] (REQUEST)
s 2.000000000 _4_ RTR  --- 0 AODV 48 [0 0 0 0] ------- [4:255 -1:255 30 0] [0x2 1 2 [5 0] [4 6]] (REQUEST)
r 2.001128578 _8_ RTR  --- 0 AODV 48 [0 ffffffff 2 800] ------- [2:255 -1:255 30 0] [0x2 1 2 [7 0] [2 6]] (REQUEST)
r 2.002491405 _9_ RTR  --- 0 AODV 48 [0 ffffffff 3 800] ------- [3:255 -1:255 30 0] [0x2 1 2 [6 0] [3 6]] (REQUEST)
r 2.002491574 _4_ RTR  --- 0 AODV 48 [0 ffffffff 3 800] ------- [3:255 -1:255 30 0] [0x2 1 2 [6 0] [3 6]] (REQUEST)
s 2.002767149 _4_ RTR  --- 0 AODV 48 [0 ffffffff 3 800] ------- [4:255 -1:255 29 0] [0x2 2 2 [6 0] [3 6]] (REQUEST)
r 2.003590002 _3_ RTR  --- 0 AODV 48 [0 ffffffff 4 800] ------- [4:255 -1:255 30 0] [0x2 1 2 [5 0] [4 6]] (REQUEST)
r 2.003590242 _9_ RTR  --- 0 AODV 48 [0 ffffffff 4 800] ------- [4:255 -1:255 30 0] [0x2 1 2 [5 0] [4 6]] (REQUEST)
r 2.003590330 _0_ RTR  --- 0 AODV 48 [0 ffffffff 4 800] ------- [4:255 -1:255 30 0] [0x2 1 2 [5 0] [4 6]] (REQUEST)
r 2.004709086 _4_ RTR  --- 0 AODV 48 [0 ffffffff 0 800] ------- [0:255 -1:255 30 0] [0x2 1 2 [9 0] [0 6]] (REQUEST)
s 2.004709086 _4_ RTR  --- 0 AODV 44 [0 0 0 0] ------- [4:255 0:255 30 0] [0x4 2 [9 4] 8.000000] (REPLY)
D 2.004709086 _4_ IFQ  ARP 0 AODV 44 [13a 4 4 800] ------- [9:255 0:255 29 0] [0x4 2 [9 4] 10.000000] (REPLY)
s 2.005452145 _3_ RTR  --- 0 AODV 48 [0 ffffffff 4 800] ------- [3:255 -1:255 29 0] [0x2 2 2 [5 0] [4 6]] (REQUEST)
r 2.005687514 _3_ RTR  --- 0 AODV 48 [0 ffffffff 4 800] ------- [4:255 -1:255 29 0] [0x2 2 2 [6 0] [3 6]] (REQUEST)
r 2.005687754 _9_ RTR  --- 0 AODV 48 [0 ffffffff 4 800] ------- [4:255 -1:255 29 0] [0x2 2 2 [6 0] [3 6]] (REQUEST)
r 2.005687842 _0_ RTR  --- 0 AODV 48 [0 ffffffff 4 800] ------- [4:255 -1:255 29 0] [0x2 2 2 [6 0] [3 6]] (REQUEST)
r 2.006605773 _9_ RTR  --- 0 AODV 48 [0 ffffffff 3 800] ------- [3:255 -1:255 29 0] [0x2 2 2 [5 0] [4 6]] (REQUEST)
r 2.006605942 _4_ RTR  --- 0 AODV 48 [0 ffffffff 3 800] ------- [3:255 -1:255 29 0] [0x2 2 2 [5 0] [4 6]] (REQUEST)
s 2.006748278 _9_ RTR  --- 0 AODV 48 [0 ffffffff 3 800] ------- [9:255 -1:255 29 0] [0x2 2 2 [6 0] [3 6]] (REQUEST)
s 2.007475121 _0_ RTR  --- 0 AODV 48 [0 ffffffff 4 800] ------- [0:255 -1:255 28 0] [0x2 3 2 [6 0] [3 6]] (REQUEST)
r 2.008742869 _3_ RTR  --- 0 AODV 48 [0 ffffffff 9 800] ------- [9:255 -1:255 29 0] [0x2 2 2 [6 0] [3 6]] (REQUEST)
r 2.008743277 _4_ RTR  --- 0 AODV 48 [0 ffffffff 9 800] ------- [9:255 -1:255 29 0] [0x2 2 2 [6 0] [3 6]] (REQUEST)
s 2.009895135 _8_ RTR  --- 0 AODV 48 [0 ffffffff 2 800] ------- [8:255 -1:255 29 0] [0x2 2 2 [7 0] [2 6]] (REQUEST)
r 2.010066561 _4_ RTR  --- 0 AODV 48 [0 ffffffff 0 800] ------- [0:255 -1:255 28 0] [0x2 3 2 [6 0] [3 6]] (REQUEST)
s 2.011440113 _9_ RTR  --- 0 AODV 48 [0 ffffffff 4 800] ------- [9:255 -1:255 29 0] [0x2 2 2 [5 0] [4 6]] (REQUEST)
r 2.012984772 _3_ RTR  --- 0 AODV 48 [0 ffffffff 9 800] ------- [9:255 -1:255 29 0] [0x2 2 2 [5 0] [4 6]] (REQUEST)
r 2.012985180 _4_ RTR  --- 0 AODV 48 [0 ffffffff 9 800] ------- [9:255 -1:255 29 0] [0x2 2 2 [5 0] [4 6]] (REQUEST)
s 2.013058492 _0_ RTR  --- 0 AODV 48 [0 ffffffff 4 800] ------- [0:255 -1:255 29 0] [0x2 2 2 [5 0] [4 6]] (REQUEST)
r 2.014549448 _0_ RTR  --- 0 AODV 44 [13a 0 4 800] ------- [4:255 0:255 30 0] [0x4 2 [9 4] 8.000000] (REPLY)
s 2.014549448 _0_ RTR  --- 0 tcp 40 [0 0 0 0] ------- [0:0 9:0 30 4] [0 0] 0 0
r 2.015962204 _4_ RTR  --- 0 AODV 48 [0 ffffffff 0 800] ------- [0:255 -1:255 29 0] [0x2 2 2 [5 0] [4 6]] (REQUEST)
r 2.017813717 _4_ RTR  --- 0 tcp 40 [13a 4 0 800] ------- [0:0 9:0 30 4] [0 0] 1 0
f 2.017813717 _4_ RTR  --- 0 tcp 40 [13a 4 0 800] ------- [0:0 9:0 29 9] [0 0] 1 0
r 2.019512108 _2_ RTR  --- 0 AODV 48 [0 ffffffff 8 800] ------- [8:255 -1:255 29 0] [0x2 2 2 [7 0] [2 6]] (REQUEST)
r 2.021509345 _9_ AGT  --- 0 tcp 40 [13a 9 4 800] ------- [0:0 9:0 29 9] [0 0] 2 0
s 2.021509345 _9_ AGT  --- 5 ack 40 [0 0 0 0] ------- [9:0 0:0 32 0] [0 0] 0 0
r 2.021509345 _9_ RTR  --- 5 ack 40 [0 0 0 0] ------- [9:0 0:0 32 0] [0 0] 0 0
s 2.021509345 _9_ RTR  --- 5 ack 40 [0 0 0 0] ------- [9:0 0:0 30 4] [0 0] 0 0
r 2.023915346 _4_ RTR  --- 5 ack 40 [13a 4 9 800] ------- [9:0 0:0 30 4] [0 0] 1 0
f 2.023915346 _4_ RTR  --- 5 ack 40 [13a 4 9 800] ------- [9:0 0:0 29 0] [0 0] 1 0
r 2.026341614 _0_ AGT  --- 5 ack 40 [13a 0 4 800] ------- [9:0 0:0 29 0] [0 0] 2 0
s 2.026341614 _0_ AGT  --- 6 tcp 1540 [0 0 0 0] ------- [0:0 9:0 32 0] [1 0] 0 0
r 2.026341614 _0_ RTR  --- 6 tcp 1540 [0 0 0 0] ------- [0:0 9:0 32 0] [1 0] 0 0
s 2.026341614 _0_ AGT  --- 7 tcp 1540 [0 0 0 0] ------- [0:0 9:0 32 0] [2 0] 0 0
r 2.026341614 _0_ RTR  --- 7 tcp 1540 [0 0 0 0] ------- [0:0 9:0 32 0] [2 0] 0 0
s 2.026341614 _0_ RTR  --- 6 tcp 1540 [0 0 0 0] ------- [0:0 9:0 30 4] [1 0] 0 0
s 2.026341614 _0_ RTR  --- 7 tcp 1540 [0 0 0 0] ------- [0:0 9:0 30 4] [2 0] 0 0
r 2.040707883 _4_ RTR  --- 6 tcp 1540 [13a 4 0 800] ------- [0:0 9:0 30 4] [1 0] 1 0
f 2.040707883 _4_ RTR  --- 6 tcp 1540 [13a 4 0 800] ------- [0:0 9:0 29 9] [1 0] 1 0
r 2.055600908 _4_ RTR  --- 7 tcp 1540 [13a 4 0 800] ------- [0:0 9:0 30 4] [2 0] 1 0
f 2.055600908 _4_ RTR  --- 7 tcp 1540 [13a 4 0 800] ------- [0:0 9:0 29 9] [2 0] 1 0
r 2.069746904 _9_ AGT  --- 6 tcp 1540 [13a 9 4 800] ------- [0:0 9:0 29 9] [1 0] 2 0
s 2.069746904 _9_ AGT  --- 8 ack 40 [0 0 0 0] ------- [9:0 0:0 32 0] [1 0] 0 0
r 2.069746904 _9_ RTR  --- 8 ack 40 [0 0 0 0] ------- [9:0 0:0 32 0] [1 0] 0 0
s 2.069746904 _9_ RTR  --- 8 ack 40 [0 0 0 0] ------- [9:0 0:0 30 4] [1 0] 0 0
r 2.083753564 _9_ AGT  --- 7 tcp 1540 [13a 9 4 800] ------- [0:0 9:0 29 9] [2 0] 2 0
s 2.083753564 _9_ AGT  --- 9 ack 40 [0 0 0 0] ------- [9:0 0:0 32 0] [2 0] 0 0
r 2.083753564 _9_ RTR  --- 9 ack 40 [0 0 0 0] ------- [9:0 0:0 32 0] [2 0] 0 0
s 2.083753564 _9_ RTR  --- 9 ack 40 [0 0 0 0] ------- [9:0 0:0 30 4] [2 0] 0 0
r 2.085619557 _4_ RTR  --- 8 ack 40 [13a 4 9 800] ------- [9:0 0:0 30 4] [1 0] 1 0
f 2.085619557 _4_ RTR  --- 8 ack 40 [13a 4 9 800] ------- [9:0 0:0 29 0] [1 0] 1 0
r 2.087585826 _0_ AGT  --- 8 ack 40 [13a 0 4 800] ------- [9:0 0:0 29 0] [1 0] 2 0
s 2.087585826 _0_ AGT  --- 10 tcp 1540 [0 0 0 0] ------- [0:0 9:0 32 0] [3 0] 0 0
r 2.087585826 _0_ RTR  --- 10 tcp 1540 [0 0 0 0] ------- [0:0 9:0 32 0] [3 0] 0 0
s 2.087585826 _0_ AGT  --- 11 tcp 1540 [0 0 0 0] ------- [0:0 9:0 32 0] [4 0] 0 0
r 2.087585826 _0_ RTR  --- 11 tcp 1540 [0 0 0 0] ------- [0:0 9:0 32 0] [4 0] 0 0
s 2.087585826 _0_ RTR  --- 10 tcp 1540 [0 0 0 0] ------- [0:0 9:0 30 4] [3 0] 0 0
s 2.087585826 _0_ RTR  --- 11 tcp 1540 [0 0 0 0] ------- [0:0 9:0 30 4] [4 0] 0 0
r 2.101592096 _4_ RTR  --- 10 tcp 1540 [13a 4 0 800] ------- [0:0 9:0 30 4] [3 0] 1 0
f 2.101592096 _4_ RTR  --- 10 tcp 1540 [13a 4 0 800] ------- [0:0 9:0 29 9] [3 0] 1 0
r 2.115539122 _4_ RTR  --- 11 tcp 1540 [13a 4 0 800] ------- [0:0 9:0 30 4] [4 0] 1 0
f 2.115539122 _4_ RTR  --- 11 tcp 1540 [13a 4 0 800] ------- [0:0 9:0 29 9] [4 0] 1 0
r 2.129465111 _9_ AGT  --- 10 tcp 1540 [13a 9 4 800] ------- [0:0 9:0 29 9] [3 0] 2 0
s 2.129465111 _9_ AGT  --- 12 ack 40 [0 0 0 0] ------- [9:0 0:0 32 0] [3 0] 0 0
r 2.129465111 _9_ RTR  --- 12 ack 40 [0 0 0 0] ------- [9:0 0:0 32 0] [3 0] 0 0
s 2.129465111 _9_ RTR  --- 12 ack 40 [0 0 0 0] ------- [9:0 0:0 30 4] [3 0] 0 0
r 2.131511098 _4_ RTR  --- 9 ack 40 [13a 4 9 800] ------- [9:0 0:0 30 4] [2 0] 1 0
f 2.131511098 _4_ RTR  --- 9 ack 40 [13a 4 9 800] ------- [9:0 0:0 29 0] [2 0] 1 0
r 2.133337748 _4_ RTR  --- 12 ack 40 [13a 4 9 800] ------- [9:0 0:0 30 4] [3 0] 1 0
f 2.133337748 _4_ RTR  --- 12 ack 40 [13a 4 9 800] ------- [9:0 0:0 29 0] [3 0] 1 0
r 2.147183734 _9_ AGT  --- 11 tcp 1540 [13a 9 4 800] ------- [0:0 9:0 29 9] [4 0] 2 0
s 2.147183734 _9_ AGT  --- 13 ack 40 [0 0 0 0] ------- [9:0 0:0 32 0] [4 0] 0 0
r 2.147183734 _9_ RTR  --- 13 ack 40 [0 0 0 0] ------- [9:0 0:0 32 0] [4 0] 0 0
s 2.147183734 _9_ RTR  --- 13 ack 40 [0 0 0 0] ------- [9:0 0:0 30 4] [4 0] 0 0
r 2.149149719 _4_ RTR  --- 13 ack 40 [13a 4 9 800] ------- [9:0 0:0 30 4] [4 0] 1 0
f 2.149149719 _4_ RTR  --- 13 ack 40 [13a 4 9 800] ------- [9:0 0:0 29 0] [4 0] 1 0
r 2.151215990 _0_ AGT  --- 9 ack 40 [13a 0 4 800] ------- [9:0 0:0 29 0] [2 0] 2 0
s 2.151215990 _0_ AGT  --- 14 tcp 1540 [0 0 0 0] ------- [0:0 9:0 32 0] [5 0] 0 0
r 2.151215990 _0_ RTR  --- 14 tcp 1540 [0 0 0 0] ------- [0:0 9:0 32 0] [5 0] 0 0
s 2.151215990 _0_ AGT  --- 15 tcp 1540 [0 0 0 0] ------- [0:0 9:0 32 0] [6 0] 0 0
r 2.151215990 _0_ RTR  --- 15 tcp 1540 [0 0 0 0] ------- [0:0 9:0 32 0] [6 0] 0 0
s 2.151215990 _0_ RTR  --- 14 tcp 1540 [0 0 0 0] ------- [0:0 9:0 30 4] [5 0] 0 0
s 2.151215990 _0_ RTR  --- 15 tcp 1540 [0 0 0 0] ------- [0:0 9:0 30 4] [6 0] 0 0
r 2.165462261 _4_ RTR  --- 14 tcp 1540 [13a 4 0 800] ------- [0:0 9:0 30 4] [5 0] 1 0
f 2.165462261 _4_ RTR  --- 14 tcp 1540 [13a 4 0 800] ------- [0:0 9:0 29 9] [5 0] 1 0
r 2.167368532 _0_ AGT  --- 12 ack 40 [13a 0 4 800] ------- [9:0 0:0 29 0] [3 0] 2 0
s 2.167368532 _0_ AGT  --- 16 tcp 1540 [0 0 0 0] ------- [0:0 9:0 32 0] [7 0] 0 0
r 2.167368532 _0_ RTR  --- 16 tcp 1540 [0 0 0 0] ------- [0:0 9:0 32 0] [7 0] 0 0
s 2.167368532 _0_ AGT  --- 17 tcp 1540 [0 0 0 0] ------- [0:0 9:0 32 0] [8 0] 0 0
r 2.167368532 _0_ RTR  --- 17 tcp 1540 [0 0 0 0] ------- [0:0 9:0 32 0] [8 0] 0 0
s 2.167368532 _0_ RTR  --- 16 tcp 1540 [0 0 0 0] ------- [0:0 9:0 30 4] [7 0] 0 0
s 2.167368532 _0_ RTR  --- 17 tcp 1540 [0 0 0 0] ------- [0:0 9:0 30 4] [8 0] 0 0
r 2.169355560 _0_ AGT  --- 13 ack 40 [13a 0 4 800] ------- [9:0 0:0 29 0] [4 0] 2 0
s 2.169355560 _0_ AGT  --- 18 tcp 1540 [0 0 0 0] ------- [0:0 9:0 32 0] [9 0] 0 0
r 2.169355560 _0_ RTR  --- 18 tcp 1540 [0 0 0 0] ------- [0:0 9:0 32 0] [9 0] 0 0
s 2.169355560 _0_ AGT  --- 19 tcp 1540 [0 0 0 0] ------- [0:0 9:0 32 0] [10 0] 0 0
r 2.169355560 _0_ RTR  --- 19 tcp 1540 [0 0 0 0] ------- [0:0 9:0 32 0] [10 0] 0 0
s 2.169355560 _0_ RTR  --- 18 tcp 1540 [0 0 0 0] ------- [0:0 9:0 30 4] [9 0] 0 0
s 2.169355560 _0_ RTR  --- 19 tcp 1540 [0 0 0 0] ------- [0:0 9:0 30 4] [10 0] 0 0
r 2.183202299 _9_ AGT  --- 14 tcp 1540 [13a 9 4 800] ------- [0:0 9:0 29 9] [5 0] 2 0
s 2.183202299 _9_ AGT  --- 20 ack 40 [0 0 0 0] ------- [9:0 0:0 32 0] [5 0] 0 0
r 2.183202299 _9_ RTR  --- 20 ack 40 [0 0 0 0] ------- [9:0 0:0 32 0] [5 0] 0 0
s 2.183202299 _9_ RTR  --- 20 ack 40 [0 0 0 0] ------- [9:0 0:0 30 4] [5 0] 0 0
r 2.185068280 _4_ RTR  --- 20 ack 40 [13a 4 9 800] ------- [9:0 0:0 30 4] [5 0] 1 0
f 2.185068280 _4_ RTR  --- 20 ack 40 [13a 4 9 800] ------- [9:0 0:0 29 0] [5 0] 1 0
r 2.199005083 _4_ RTR  --- 15 tcp 1540 [13a 4 0 800] ------- [0:0 9:0 30 4] [6 0] 1 0
f 2.199005083 _4_ RTR  --- 15 tcp 1540 [13a 4 0 800] ------- [0:0 9:0 29 9] [6 0] 1 0
r 2.212832111 _4_ RTR  --- 16 tcp 1540 [13a 4 0 800] ------- [0:0 9:0 30 4] [7 0] 1 0
f 2.212832111 _4_ RTR  --- 16 tcp 1540 [13a 4 0 800] ------- [0:0 9:0 29 9] [7 0] 1 0
r 2.226719141 _4_ RTR  --- 17 tcp 1540 [13a 4 0 800] ------- [0:0 9:0 30 4] [8 0] 1 0
f 2.226719141 _4_ RTR  --- 17 tcp 1540 [13a 4 0 800] ------- [0:0 9:0 29 9] [8 0] 1 0
r 2.228625413 _0_ AGT  --- 20 ack 40 [13a 0 4 800] ------- [9:0 0:0 29 0] [5 0] 2 0
s 2.228625413 _0_ AGT  --- 21 tcp 1540 [0 0 0 0] ------- [0:0 9:0 32 0] [11 0] 0 0
r 2.228625413 _0_ RTR  --- 21 tcp 1540 [0 0 0 0] ------- [0:0 9:0 32 0] [11 0] 0 0
s 2.228625413 _0_ AGT  --- 22 tcp 1540 [0 0 0 0] ------- [0:0 9:0 32 0] [12 0] 0 0
r 2.228625413 _0_ RTR  --- 22 tcp 1540 [0 0 0 0] ------- [0:0 9:0 32 0] [12 0] 0 0
s 2.228625413 _0_ RTR  --- 21 tcp 1540 [0 0 0 0] ------- [0:0 9:0 30 4] [11 0] 0 0
s 2.228625413 _0_ RTR  --- 22 tcp 1540 [0 0 0 0] ------- [0:0 9:0 30 4] [12 0] 0 0
r 2.242891685 _4_ RTR  --- 18 tcp 1540 [13a 4 0 800] ------- [0:0 9:0 30 4] [9 0] 1 0
f 2.242891685 _4_ RTR  --- 18 tcp 1540 [13a 4 0 800] ------- [0:0 9:0 29 9] [9 0] 1 0
r 2.256877658 _9_ AGT  --- 15 tcp 1540 [13a 9 4 800] ------- [0:0 9:0 29 9] [6 0] 2 0
s 2.256877658 _9_ AGT  --- 23 ack 40 [0 0 0 0] ------- [9:0 0:0 32 0] [6 0] 0 0
r 2.256877658 _9_ RTR  --- 23 ack 40 [0 0 0 0] ------- [9:0 0:0 32 0] [6 0] 0 0
s 2.256877658 _9_ RTR  --- 23 ack 40 [0 0 0 0] ------- [9:0 0:0 30 4] [6 0] 0 0
r 2.258723629 _4_ RTR  --- 23 ack 40 [13a 4 9 800] ------- [9:0 0:0 30 4] [6 0] 1 0
f 2.258723629 _4_ RTR  --- 23 ack 40 [13a 4 9 800] ------- [9:0 0:0 29 0] [6 0] 1 0
r 2.272569601 _9_ AGT  --- 16 tcp 1540 [13a 9 4 800] ------- [0:0 9:0 29 9] [7 0] 2 0
s 2.272569601 _9_ AGT  --- 24 ack 40 [0 0 0 0] ------- [9:0 0:0 32 0] [7 0] 0 0
r 2.272569601 _9_ RTR  --- 24 ack 40 [0 0 0 0] ------- [9:0 0:0 32 0] [7 0] 0 0
s 2.272569601 _9_ RTR  --- 24 ack 40 [0 0 0 0] ------- [9:0 0:0 30 4] [7 0] 0 0
r 2.274455570 _4_ RTR  --- 24 ack 40 [13a 4 9 800] ------- [9:0 0:0 30 4] [7 0] 1 0
f 2.274455570 _4_ RTR  --- 24 ack 40 [13a 4 9 800] ------- [9:0 0:0 29 0] [7 0] 1 0
r 2.288501539 _9_ AGT  --- 17 tcp 1540 [13a 9 4 800] ------- [0:0 9:0 29 9] [8 0] 2 0
s 2.288501539 _9_ AGT  --- 25 ack 40 [0 0 0 0] ------- [9:0 0:0 32 0] [8 0] 0 0
r 2.288501539 _9_ RTR  --- 25 ack 40 [0 0 0 0] ------- [9:0 0:0 32 0] [8 0] 0 0
s 2.288501539 _9_ RTR  --- 25 ack 40 [0 0 0 0] ------- [9:0 0:0 30 4] [8 0] 0 0
r 2.290347506 _4_ RTR  --- 25 ack 40 [13a 4 9 800] ------- [9:0 0:0 30 4] [8 0] 1 0
f 2.290347506 _4_ RTR  --- 25 ack 40 [13a 4 9 800] ------- [9:0 0:0 29 0] [8 0] 1 0
r 2.304324314 _4_ RTR  --- 19 tcp 1540 [13a 4 0 800] ------- [0:0 9:0 30 4] [10 0] 1 0
f 2.304324314 _4_ RTR  --- 19 tcp 1540 [13a 4 0 800] ------- [0:0 9:0 29 9] [10 0] 1 0
r 2.318390279 _9_ AGT  --- 18 tcp 1540 [13a 9 4 800] ------- [0:0 9:0 29 9] [9 0] 2 0
s 2.318390279 _9_ AGT  --- 26 ack 40 [0 0 0 0] ------- [9:0 0:0 32 0] [9 0] 0 0
r 2.318390279 _9_ RTR  --- 26 ack 40 [0 0 0 0] ------- [9:0 0:0 32 0] [9 0] 0 0
s 2.318390279 _9_ RTR  --- 26 ack 40 [0 0 0 0] ------- [9:0 0:0 30 4] [9 0] 0 0
r 2.320336243 _4_ RTR  --- 26 ack 40 [13a 4 9 800] ------- [9:0 0:0 30 4] [9 0] 1 0
f 2.320336243 _4_ RTR  --- 26 ack 40 [13a 4 9 800] ------- [9:0 0:0 29 0] [9 0] 1 0
r 2.334353051 _4_ RTR  --- 21 tcp 1540 [13a 4 0 800] ------- [0:0 9:0 30 4] [11 0] 1 0
f 2.334353051 _4_ RTR  --- 21 tcp 1540 [13a 4 0 800] ------- [0:0 9:0 29 9] [11 0] 1 0
r 2.348360083 _4_ RTR  --- 22 tcp 1540 [13a 4 0 800] ------- [0:0 9:0 30 4] [12 0] 1 0
f 2.348360083 _4_ RTR  --- 22 tcp 1540 [13a 4 0 800] ------- [0:0 9:0 29 9] [12 0] 1 0
r 2.350206358 _0_ AGT  --- 23 ack 40 [13a 0 4 800] ------- [9:0 0:0 29 0] [6 0] 2 0
s 2.350206358 _0_ AGT  --- 27 tcp 1540 [0 0 0 0] ------- [0:0 9:0 32 0] [13 0] 0 0
r 2.350206358 _0_ RTR  --- 27 tcp 1540 [0 0 0 0] ------- [0:0 9:0 32 0] [13 0] 0 0
s 2.350206358 _0_ AGT  --- 28 tcp 1540 [0 0 0 0] ------- [0:0 9:0 32 0] [14 0] 0 0
r 2.350206358 _0_ RTR  --- 28 tcp 1540 [0 0 0 0] ------- [0:0 9:0 32 0] [14 0] 0 0
s 2.350206358 _0_ RTR  --- 27 tcp 1540 [0 0 0 0] ------- [0:0 9:0 30 4] [13 0] 0 0
s 2.350206358 _0_ RTR  --- 28 tcp 1540 [0 0 0 0] ------- [0:0 9:0 30 4] [14 0] 0 0
r 2.352213390 _0_ AGT  --- 24 ack 40 [13a 0 4 800] ------- [9:0 0:0 29 0] [7 0] 2 0
s 2.352213390 _0_ AGT  --- 29 tcp 1540 [0 0 0 0] ------- [0:0 9:0 32 0] [15 0] 0 0
r 2.352213390 _0_ RTR  --- 29 tcp 1540 [0 0 0 0] ------- [0:0 9:0 32 0] [15 0] 0 0
s 2.352213390 _0_ AGT  --- 30 tcp 1540 [0 0 0 0] ------- [0:0 9:0 32 0] [16 0] 0 0
r 2.352213390 _0_ RTR  --- 30 tcp 1540 [0 0 0 0] ------- [0:0 9:0 32 0] [16 0] 0 0
s 2.352213390 _0_ RTR  --- 29 tcp 1540 [0 0 0 0] ------- [0:0 9:0 30 4] [15 0] 0 0
s 2.352213390 _0_ RTR  --- 30 tcp 1540 [0 0 0 0] ------- [0:0 9:0 30 4] [16 0] 0 0
r 2.354180423 _0_ AGT  --- 25 ack 40 [13a 0 4 800] ------- [9:0 0:0 29 0] [8 0] 2 0
s 2.354180423 _0_ AGT  --- 31 tcp 1540 [0 0 0 0] ------- [0:0 9:0 32 0] [17 0] 0 0
r 2.354180423 _0_ RTR  --- 31 tcp 1540 [0 0 0 0] ------- [0:0 9:0 32 0] [17 0] 0 0
s 2.354180423 _0_ AGT  --- 32 tcp 1540 [0 0 0 0] ------- [0:0 9:0 32 0] [18 0] 0 0
r 2.354180423 _0_ RTR  --- 32 tcp 1540 [0 0 0 0] ------- [0:0 9:0 32 0] [18 0] 0 0
s 2.354180423 _0_ RTR  --- 31 tcp 1540 [0 0 0 0] ------- [0:0 9:0 30 4] [17 0] 0 0
s 2.354180423 _0_ RTR  --- 32 tcp 1540 [0 0 0 0] ------- [0:0 9:0 30 4] [18 0] 0 0
r 2.368206697 _4_ RTR  --- 27 tcp 1540 [13a 4 0 800] ------- [0:0 9:0 30 4] [13 0] 1 0
f 2.368206697 _4_ RTR  --- 27 tcp 1540 [13a 4 0 800] ------- [0:0 9:0 29 9] [13 0] 1 0
r 2.382033731 _4_ RTR  --- 28 tcp 1540 [13a 4 0 800] ------- [0:0 9:0 30 4] [14 0] 1 0
f 2.382033731 _4_ RTR  --- 28 tcp 1540 [13a 4 0 800] ------- [0:0 9:0 29 9] [14 0] 1 0
r 2.395899686 _9_ AGT  --- 19 tcp 1540 [13a 9 4 800] ------- [0:0 9:0 29 9] [10 0] 2 0
s 2.395899686 _9_ AGT  --- 33 ack 40 [0 0 0 0] ------- [9:0 0:0 32 0] [10 0] 0 0
r 2.395899686 _9_ RTR  --- 33 ack 40 [0 0 0 0] ------- [9:0 0:0 32 0] [10 0] 0 0
s 2.395899686 _9_ RTR  --- 33 ack 40 [0 0 0 0] ------- [9:0 0:0 30 4] [10 0] 0 0
r 2.397726613 _0_ AGT  --- 26 ack 40 [13a 0 4 800] ------- [9:0 0:0 29 0] [9 0] 2 0
s 2.397726613 _0_ AGT  --- 34 tcp 1540 [0 0 0 0] ------- [0:0 9:0 32 0] [19 0] 0 0
r 2.397726613 _0_ RTR  --- 34 tcp 1540 [0 0 0 0] ------- [0:0 9:0 32 0] [19 0] 0 0
s 2.397726613 _0_ AGT  --- 35 tcp 1540 [0 0 0 0] ------- [0:0 9:0 32 0] [20 0] 0 0
r 2.397726613 _0_ RTR  --- 35 tcp 1540 [0 0 0 0] ------- [0:0 9:0 32 0] [20 0] 0 0
s 2.397726613 _0_ RTR  --- 34 tcp 1540 [0 0 0 0] ------- [0:0 9:0 30 4] [19 0] 0 0
s 2.397726613 _0_ RTR  --- 35 tcp 1540 [0 0 0 0] ------- [0:0 9:0 30 4] [20 0] 0 0
r 2.411612888 _4_ RTR  --- 29 tcp 1540 [13a 4 0 800] ------- [0:0 9:0 30 4] [15 0] 1 0
f 2.411612888 _4_ RTR  --- 29 tcp 1540 [13a 4 0 800] ------- [0:0 9:0 29 9] [15 0] 1 0
r 2.413509269 _4_ RTR  --- 33 ack 40 [13a 4 9 800] ------- [9:0 0:0 30 4] [10 0] 1 0
f 2.413509269 _4_ RTR  --- 33 ack 40 [13a 4 9 800] ------- [9:0 0:0 29 0] [10 0] 1 0
r 2.427755221 _9_ AGT  --- 21 tcp 1540 [13a 9 4 800] ------- [0:0 9:0 29 9] [11 0] 2 0
s 2.427755221 _9_ AGT  --- 36 ack 40 [0 0 0 0] ------- [9:0 0:0 32 0] [11 0] 0 0
r 2.427755221 _9_ RTR  --- 36 ack 40 [0 0 0 0] ------- [9:0 0:0 32 0] [11 0] 0 0
s 2.427755221 _9_ RTR  --- 36 ack 40 [0 0 0 0] ------- [9:0 0:0 30 4] [11 0] 0 0
r 2.429761171 _4_ RTR  --- 36 ack 40 [13a 4 9 800] ------- [9:0 0:0 30 4] [11 0] 1 0
f 2.429761171 _4_ RTR  --- 36 ack 40 [13a 4 9 800] ------- [9:0 0:0 29 0] [11 0] 1 0
r 2.443777983 _4_ RTR  --- 30 tcp 1540 [13a 4 0 800] ------- [0:0 9:0 30 4] [16 0] 1 0
f 2.443777983 _4_ RTR  --- 30 tcp 1540 [13a 4 0 800] ------- [0:0 9:0 29 9] [16 0] 1 0
r 2.457843931 _9_ AGT  --- 22 tcp 1540 [13a 9 4 800] ------- [0:0 9:0 29 9] [12 0] 2 0
s 2.457843931 _9_ AGT  --- 37 ack 40 [0 0 0 0] ------- [9:0 0:0 32 0] [12 0] 0 0
r 2.457843931 _9_ RTR  --- 37 ack 40 [0 0 0 0] ------- [9:0 0:0 32 0] [12 0] 0 0
s 2.457843931 _9_ RTR  --- 37 ack 40 [0 0 0 0] ------- [9:0 0:0 30 4] [12 0] 0 0
r 2.459809878 _4_ RTR  --- 37 ack 40 [13a 4 9 800] ------- [9:0 0:0 30 4] [12 0] 1 0
f 2.459809878 _4_ RTR  --- 37 ack 40 [13a 4 9 800] ------- [9:0 0:0 29 0] [12 0] 1 0
r 2.473755824 _9_ AGT  --- 27 tcp 1540 [13a 9 4 800] ------- [0:0 9:0 29 9] [13 0] 2 0
s 2.473755824 _9_ AGT  --- 38 ack 40 [0 0 0 0] ------- [9:0 0:0 32 0] [13 0] 0 0
r 2.473755824 _9_ RTR  --- 38 ack 40 [0 0 0 0] ------- [9:0 0:0 32 0] [13 0] 0 0
s 2.473755824 _9_ RTR  --- 38 ack 40 [0 0 0 0] ------- [9:0 0:0 30 4] [13 0] 0 0
r 2.487682416 _9_ AGT  --- 28 tcp 1540 [13a 9 4 800] ------- [0:0 9:0 29 9] [14 0] 2 0
s 2.487682416 _9_ AGT  --- 39 ack 40 [0 0 0 0] ------- [9:0 0:0 32 0] [14 0] 0 0
r 2.487682416 _9_ RTR  --- 39 ack 40 [0 0 0 0] ------- [9:0 0:0 32 0] [14 0] 0 0
s 2.487682416 _9_ RTR  --- 39 ack 40 [0 0 0 0] ------- [9:0 0:0 30 4] [14 0] 0 0
r 2.501689006 _9_ AGT  --- 29 tcp 1540 [13a 9 4 800] ------- [0:0 9:0 29 9] [15 0] 2 0
s 2.501689006 _9_ AGT  --- 40 ack 40 [0 0 0 0] ------- [9:0 0:0 32 0] [15 0] 0 0
r 2.501689006 _9_ RTR  --- 40 ack 40 [0 0 0 0] ------- [9:0 0:0 32 0] [15 0] 0 0
s 2.501689006 _9_ RTR  --- 40 ack 40 [0 0 0 0] ------- [9:0 0:0 30 4] [15 0] 0 0
r 2.503515930 _0_ AGT  --- 33 ack 40 [13a 0 4 800] ------- [9:0 0:0 29 0] [10 0] 2 0
s 2.503515930 _0_ AGT  --- 41 tcp 1540 [0 0 0 0] ------- [0:0 9:0 32 0] [21 0] 0 0
r 2.503515930 _0_ RTR  --- 41 tcp 1540 [0 0 0 0] ------- [0:0 9:0 32 0] [21 0] 0 0
s 2.503515930 _0_ AGT  --- 42 tcp 1540 [0 0 0 0] ------- [0:0 9:0 32 0] [22 0] 0 0
r 2.503515930 _0_ RTR  --- 42 tcp 1540 [0 0 0 0] ------- [0:0 9:0 32 0] [22 0] 0 0
s 2.503515930 _0_ RTR  --- 41 tcp 1540 [0 0 0 0] ------- [0:0 9:0 30 4] [21 0] 0 0
s 2.503515930 _0_ RTR  --- 42 tcp 1540 [0 0 0 0] ------- [0:0 9:0 30 4] [22 0] 0 0
r 2.517562208 _4_ RTR  --- 31 tcp 1540 [13a 4 0 800] ------- [0:0 9:0 30 4] [17 0] 1 0
f 2.517562208 _4_ RTR  --- 31 tcp 1540 [13a 4 0 800] ------- [0:0 9:0 29 9] [17 0] 1 0
r 2.519548485 _0_ AGT  --- 36 ack 40 [13a 0 4 800] ------- [9:0 0:0 29 0] [11 0] 2 0
s 2.519548485 _0_ AGT  --- 43 tcp 1540 [0 0 0 0] ------- [0:0 9:0 32 0] [23 0] 0 0
r 2.519548485 _0_ RTR  --- 43 tcp 1540 [0 0 0 0] ------- [0:0 9:0 32 0] [23 0] 0 0
s 2.519548485 _0_ AGT  --- 44 tcp 1540 [0 0 0 0] ------- [0:0 9:0 32 0] [24 0] 0 0
r 2.519548485 _0_ RTR  --- 44 tcp 1540 [0 0 0 0] ------- [0:0 9:0 32 0] [24 0] 0 0
s 2.519548485 _0_ RTR  --- 43 tcp 1540 [0 0 0 0] ------- [0:0 9:0 30 4] [23 0] 0 0
s 2.519548485 _0_ RTR  --- 44 tcp 1540 [0 0 0 0] ------- [0:0 9:0 30 4] [24 0] 0 0
r 2.533615183 _9_ AGT  --- 30 tcp 1540 [13a 9 4 800] ------- [0:0 9:0 29 9] [16 0] 2 0
s 2.533615183 _9_ AGT  --- 45 ack 40 [0 0 0 0] ------- [9:0 0:0 32 0] [16 0] 0 0
r 2.533615183 _9_ RTR  --- 45 ack 40 [0 0 0 0] ------- [9:0 0:0 32 0] [16 0] 0 0
s 2.533615183 _9_ RTR  --- 45 ack 40 [0 0 0 0] ------- [9:0 0:0 30 4] [16 0] 0 0
r 2.535442107 _0_ AGT  --- 37 ack 40 [13a 0 4 800] ------- [9:0 0:0 29 0] [12 0] 2 0
s 2.535442107 _0_ AGT  --- 46 tcp 1540 [0 0 0 0] ------- [0:0 9:0 32 0] [25 0] 0 0
r 2.535442107 _0_ RTR  --- 46 tcp 1540 [0 0 0 0] ------- [0:0 9:0 32 0] [25 0] 0 0
s 2.535442107 _0_ AGT  --- 47 tcp 1540 [0 0 0 0] ------- [0:0 9:0 32 0] [26 0] 0 0
r 2.535442107 _0_ RTR  --- 47 tcp 1540 [0 0 0 0] ------- [0:0 9:0 32 0] [26 0] 0 0
s 2.535442107 _0_ RTR  --- 46 tcp 1540 [0 0 0 0] ------- [0:0 9:0 30 4] [25 0] 0 0
s 2.535442107 _0_ RTR  --- 47 tcp 1540 [0 0 0 0] ------- [0:0 9:0 30 4] [26 0] 0 0
r 2.549368385 _4_ RTR  --- 32 tcp 1540 [13a 4 0 800] ------- [0:0 9:0 30 4] [18 0] 1 0
f 2.549368385 _4_ RTR  --- 32 tcp 1540 [13a 4 0 800] ------- [0:0 9:0 29 9] [18 0] 1 0
r 2.563214320 _9_ AGT  --- 31 tcp 1540 [13a 9 4 800] ------- [0:0 9:0 29 9] [17 0] 2 0
s 2.563214320 _9_ AGT  --- 48 ack 40 [0 0 0 0] ------- [9:0 0:0 32 0] [17 0] 0 0
r 2.563214320 _9_ RTR  --- 48 ack 40 [0 0 0 0] ------- [9:0 0:0 32 0] [17 0] 0 0
s 2.563214320 _9_ RTR  --- 48 ack 40 [0 0 0 0] ------- [9:0 0:0 30 4] [17 0] 0 0
r 2.565080253 _4_ RTR  --- 38 ack 40 [13a 4 9 800] ------- [9:0 0:0 30 4] [13 0] 1 0
f 2.565080253 _4_ RTR  --- 38 ack 40 [13a 4 9 800] ------- [9:0 0:0 29 0] [13 0] 1 0
r 2.579046186 _9_ AGT  --- 32 tcp 1540 [13a 9 4 800] ------- [0:0 9:0 29 9] [18 0] 2 0
s 2.579046186 _9_ AGT  --- 49 ack 40 [0 0 0 0] ------- [9:0 0:0 32 0] [18 0] 0 0
r 2.579046186 _9_ RTR  --- 49 ack 40 [0 0 0 0] ------- [9:0 0:0 32 0] [18 0] 0 0
s 2.579046186 _9_ RTR  --- 49 ack 40 [0 0 0 0] ------- [9:0 0:0 30 4] [18 0] 0 0
r 2.581252117 _4_ RTR  --- 39 ack 40 [13a 4 9 800] ------- [9:0 0:0 30 4] [14 0] 1 0
f 2.581252117 _4_ RTR  --- 39 ack 40 [13a 4 9 800] ------- [9:0 0:0 29 0] [14 0] 1 0
r 2.583218691 _4_ RTR  --- 40 ack 40 [13a 4 9 800] ------- [9:0 0:0 30 4] [15 0] 1 0
f 2.583218691 _4_ RTR  --- 40 ack 40 [13a 4 9 800] ------- [9:0 0:0 29 0] [15 0] 1 0
r 2.585144970 _0_ AGT  --- 38 ack 40 [13a 0 4 800] ------- [9:0 0:0 29 0] [13 0] 2 0
s 2.585144970 _0_ AGT  --- 50 tcp 1540 [0 0 0 0] ------- [0:0 9:0 32 0] [27 0] 0 0
r 2.585144970 _0_ RTR  --- 50 tcp 1540 [0 0 0 0] ------- [0:0 9:0 32 0] [27 0] 0 0