n -t * -s 0  -x 515 -y 830 -Z 0 -z 25  -v circle -c black
n -t * -s 1  -x 629 -y 729 -Z 0 -z 25  -v circle -c black
n -t * -s 2  -x 604 -y 719 -Z 0 -z 25  -v circle -c black
n -t * -s 3  -x 536 -y 793 -Z 0 -z 25  -v circle -c black
n -t * -s 4  -x 178 -y 465 -Z 0 -z 25  -v circle -c black
n -t * -s 5  -x 694 -y 945 -Z 0 -z 25  -v circle -c black
n -t * -s 6  -x 112 -y 527 -Z 0 -z 25  -v circle -c black
n -t * -s 7  -x 756 -y 258 -Z 0 -z 25  -v circle -c black
n -t * -s 8  -x 285 -y 786 -Z 0 -z 25  -v circle -c black
n -t * -s 9  -x 858 -y 841 -Z 0 -z 25  -v circle -c black
V -t * -v 1.0a5 -a 0
W -t * -x 1000 -y 1000
A -t * -n 1 -p 0 -o 0x7fffffff -c 30 -a 1
A -t * -h 1 -m 1073741823 -s 0
n -t 1.000000 -s 0 -x 515.000000 -y 830.000000 -U -0.665704 -V -6.968274 -T 115.667098
n -t 1.000000 -s 1 -x 629.000000 -y 729.000000 -U 0.977521 -V 0.210838 -T 260.863949
n -t 1.000000 -s 2 -x 604.000000 -y 719.000000 -U 0.053827 -V -1.999276 -T 260.094214
n -t 1.000000 -s 3 -x 536.000000 -y 793.000000 -U 1.181478 -V -1.613726 -T 312.320749
n -t 1.000000 -s 4 -x 178.000000 -y 465.000000 -U 4.376111 -V -2.418606 -T 114.942246
n -t 1.000000 -s 5 -x 694.000000 -y 945.000000 -U -1.225796 -V -2.738142 -T 125.632621
n -t 1.000000 -s 6 -x 112.000000 -y 527.000000 -U 6.944942 -V -0.876231 -T 61.627585
n -t 1.000000 -s 7 -x 756.000000 -y 258.000000 -U -0.725592 -V 0.688126 -T 800.725921
n -t 1.000000 -s 8 -x 285.000000 -y 786.000000 -U -2.081040 -V -6.683507 -T 115.807458
n -t 1.000000 -s 9 -x 858.000000 -y 841.000000 -U -0.545897 -V -4.970110 -T 122.733695
+ -t 1.000000000 -s 0 -d -1 -p tcp -e 40 -c 2 -a 0 -i 0 -k AGT 
- -t 1.000000000 -s 0 -d -1 -p tcp -e 40 -c 2 -a 0 -i 0 -k AGT
h -t 1.000000000 -s 0 -d -1 -p tcp -e 40 -c 2 -a 0 -i 0 -k AGT
+ -t 1.000000000 -s 1 -d -1 -p tcp -e 40 -c 2 -a 0 -i 1 -k AGT 
- -t 1.000000000 -s 1 -d -1 -p tcp -e 40 -c 2 -a 0 -i 1 -k AGT
h -t 1.000000000 -s 1 -d -1 -p tcp -e 40 -c 2 -a 0 -i 1 -k AGT
+ -t 1.000000000 -s 2 -d -1 -p tcp -e 40 -c 2 -a 0 -i 2 -k AGT 
- -t 1.000000000 -s 2 -d -1 -p tcp -e 40 -c 2 -a 0 -i 2 -k AGT
h -t 1.000000000 -s 2 -d -1 -p tcp -e 40 -c 2 -a 0 -i 2 -k AGT
+ -t 1.000000000 -s 3 -d -1 -p tcp -e 40 -c 2 -a 0 -i 3 -k AGT 
- -t 1.000000000 -s 3 -d -1 -p tcp -e 40 -c 2 -a 0 -i 3 -k AGT
h -t 1.000000000 -s 3 -d -1 -p tcp -e 40 -c 2 -a 0 -i 3 -k AGT
+ -t 1.000000000 -s 4 -d -1 -p tcp -e 40 -c 2 -a 0 -i 4 -k AGT 
- -t 1.000000000 -s 4 -d -1 -p tcp -e 40 -c 2 -a 0 -i 4 -k AGT
h -t 1.000000000 -s 4 -d -1 -p tcp -e 40 -c 2 -a 0 -i 4 -k AGT
+ -t 1.000000000 -s 0 -d -1 -p AODV -e 48 -c 2 -a 0 -i 0 -k RTR 
- -t 1.000000000 -s 0 -d -1 -p AODV -e 48 -c 2 -a 0 -i 0 -k RTR
h -t 1.000000000 -s 0 -d -1 -p AODV -e 48 -c 2 -a 0 -i 0 -k RTR
+ -t 1.000000000 -s 1 -d -1 -p AODV -e 48 -c 2 -a 0 -i 0 -k RTR 
- -t 1.000000000 -s 1 -d -1 -p AODV -e 48 -c 2 -a 0 -i 0 -k RTR
h -t 1.000000000 -s 1 -d -1 -p AODV -e 48 -c 2 -a 0 -i 0 -k RTR
+ -t 1.000000000 -s 2 -d -1 -p AODV -e 48 -c 2 -a 0 -i 0 -k RTR 
- -t 1.000000000 -s 2 -d -1 -p AODV -e 48 -c 2 -a 0 -i 0 -k RTR
h -t 1.000000000 -s 2 -d -1 -p AODV -e 48 -c 2 -a 0 -i 0 -k RTR
+ -t 1.000000000 -s 3 -d -1 -p AODV -e 48 -c 2 -a 0 -i 0 -k RTR 
- -t 1.000000000 -s 3 -d -1 -p AODV -e 48 -c 2 -a 0 -i 0 -k RTR
h -t 1.000000000 -s 3 -d -1 -p AODV -e 48 -c 2 -a 0 -i 0 -k RTR
+ -t 1.000000000 -s 4 -d -1 -p AODV -e 48 -c 2 -a 0 -i 0 -k RTR 
- -t 1.000000000 -s 4 -d -1 -p AODV -e 48 -c 2 -a 0 -i 0 -k RTR
h -t 1.000000000 -s 4 -d -1 -p AODV -e 48 -c 2 -a 0 -i 0 -k RTR
r -t 1.000948142 -s 3 -d -1 -p AODV -e 48 -c 2 -a 0 -i 0 -k RTR
r -t 1.000948474 -s 2 -d -1 -p AODV -e 48 -c 2 -a 0 -i 0 -k RTR
r -t 1.000948508 -s 1 -d -1 -p AODV -e 48 -c 2 -a 0 -i 0 -k RTR
r -t 1.000948709 -s 5 -d -1 -p AODV -e 48 -c 2 -a 0 -i 0 -k RTR
r -t 1.000948781 -s 8 -d -1 -p AODV -e 48 -c 2 -a 0 -i 0 -k RTR
+ -t 1.001376453 -s 1 -d -1 -p AODV -e 48 -c 2 -a 0 -i 0 -k RTR 
- -t 1.001376453 -s 1 -d -1 -p AODV -e 48 -c 2 -a 0 -i 0 -k RTR
h -t 1.001376453 -s 1 -d -1 -p AODV -e 48 -c 2 -a 0 -i 0 -k RTR
r -t 1.002006597 -s 2 -d -1 -p AODV -e 48 -c 2 -a 0 -i 0 -k RTR
r -t 1.002006884 -s 3 -d -1 -p AODV -e 48 -c 2 -a 0 -i 0 -k RTR
r -t 1.002007015 -s 0 -d -1 -p AODV -e 48 -c 2 -a 0 -i 0 -k RTR
r -t 1.002007260 -s 5 -d -1 -p AODV -e 48 -c 2 -a 0 -i 0 -k RTR
+ -t 1.002086863 -s 8 -d -1 -p AODV -e 48 -c 2 -a 0 -i 0 -k RTR 
- -t 1.002086863 -s 8 -d -1 -p AODV -e 48 -c 2 -a 0 -i 0 -k RTR
h -t 1.002086863 -s 8 -d -1 -p AODV -e 48 -c 2 -a 0 -i 0 -k RTR
+ -t 1.002589928 -s 2 -d -1 -p AODV -e 48 -c 2 -a 0 -i 0 -k RTR 
- -t 1.002589928 -s 2 -d -1 -p AODV -e 48 -c 2 -a 0 -i 0 -k RTR
h -t 1.002589928 -s 2 -d -1 -p AODV -e 48 -c 2 -a 0 -i 0 -k RTR
r -t 1.002944687 -s 1 -d -1 -p AODV -e 48 -c 2 -a 0 -i 0 -k RTR
r -t 1.002944932 -s 3 -d -1 -p AODV -e 48 -c 2 -a 0 -i 0 -k RTR
r -t 1.002945072 -s 0 -d -1 -p AODV -e 48 -c 2 -a 0 -i 0 -k RTR
r -t 1.002945408 -s 5 -d -1 -p AODV -e 48 -c 2 -a 0 -i 0 -k RTR
+ -t 1.002948404 -s 0 -d -1 -p AODV -e 48 -c 2 -a 0 -i 0 -k RTR 
- -t 1.002948404 -s 0 -d -1 -p AODV -e 48 -c 2 -a 0 -i 0 -k RTR
h -t 1.002948404 -s 0 -d -1 -p AODV -e 48 -c 2 -a 0 -i 0 -k RTR
+ -t 1.003754937 -s 3 -d -1 -p AODV -e 48 -c 2 -a 0 -i 0 -k RTR 
- -t 1.003754937 -s 3 -d -1 -p AODV -e 48 -c 2 -a 0 -i 0 -k RTR
h -t 1.003754937 -s 3 -d -1 -p AODV -e 48 -c 2 -a 0 -i 0 -k RTR
r -t 1.003883074 -s 0 -d -1 -p AODV -e 48 -c 2 -a 0 -i 0 -k RTR
r -t 1.003883267 -s 2 -d -1 -p AODV -e 48 -c 2 -a 0 -i 0 -k RTR
r -t 1.003883309 -s 1 -d -1 -p AODV -e 48 -c 2 -a 0 -i 0 -k RTR
r -t 1.003883663 -s 5 -d -1 -p AODV -e 48 -c 2 -a 0 -i 0 -k RTR
r -t 1.004801216 -s 3 -d -1 -p AODV -e 48 -c 2 -a 0 -i 0 -k RTR
r -t 1.004801548 -s 2 -d -1 -p AODV -e 48 -c 2 -a 0 -i 0 -k RTR
r -t 1.004801582 -s 1 -d -1 -p AODV -e 48 -c 2 -a 0 -i 0 -k RTR
r -t 1.004801783 -s 5 -d -1 -p AODV -e 48 -c 2 -a 0 -i 0 -k RTR
r -t 1.004801855 -s 8 -d -1 -p AODV -e 48 -c 2 -a 0 -i 0 -k RTR
+ -t 1.004801855 -s 8 -d 0 -p AODV -e 44 -c 2 -a 0 -i 0 -k RTR 
- -t 1.004801855 -s 8 -d 0 -p AODV -e 44 -c 2 -a 0 -i 0 -k RTR
h -t 1.004801855 -s 8 -d 0 -p AODV -e 44 -c 2 -a 0 -i 0 -k RTR
r -t 1.005839672 -s 2 -d -1 -p AODV -e 48 -c 2 -a 0 -i 0 -k RTR
r -t 1.005839958 -s 3 -d -1 -p AODV -e 48 -c 2 -a 0 -i 0 -k RTR
r -t 1.005840089 -s 0 -d -1 -p AODV -e 48 -c 2 -a 0 -i 0 -k RTR
r -t 1.005840334 -s 5 -d -1 -p AODV -e 48 -c 2 -a 0 -i 0 -k RTR
+ -t 1.006054862 -s 2 -d -1 -p AODV -e 48 -c 2 -a 0 -i 0 -k RTR 
- -t 1.006054862 -s 2 -d -1 -p AODV -e 48 -c 2 -a 0 -i 0 -k RTR
h -t 1.006054862 -s 2 -d -1 -p AODV -e 48 -c 2 -a 0 -i 0 -k RTR
+ -t 1.006243165 -s 2 -d -1 -p AODV -e 48 -c 2 -a 0 -i 0 -k RTR 
- -t 1.006243165 -s 2 -d -1 -p AODV -e 48 -c 2 -a 0 -i 0 -k RTR
h -t 1.006243165 -s 2 -d -1 -p AODV -e 48 -c 2 -a 0 -i 0 -k RTR
+ -t 1.006295565 -s 1 -d -1 -p AODV -e 48 -c 2 -a 0 -i 0 -k RTR 
- -t 1.006295565 -s 1 -d -1 -p AODV -e 48 -c 2 -a 0 -i 0 -k RTR
h -t 1.006295565 -s 1 -d -1 -p AODV -e 48 -c 2 -a 0 -i 0 -k RTR
r -t 1.006757761 -s 1 -d -1 -p AODV -e 48 -c 2 -a 0 -i 0 -k RTR
r -t 1.006758007 -s 3 -d -1 -p AODV -e 48 -c 2 -a 0 -i 0 -k RTR
r -t 1.006758146 -s 0 -d -1 -p AODV -e 48 -c 2 -a 0 -i 0 -k RTR
r -t 1.006758482 -s 5 -d -1 -p AODV -e 48 -c 2 -a 0 -i 0 -k RTR
+ -t 1.007031544 -s 1 -d -1 -p AODV -e 48 -c 2 -a 0 -i 0 -k RTR 
- -t 1.007031544 -s 1 -d -1 -p AODV -e 48 -c 2 -a 0 -i 0 -k RTR
h -t 1.007031544 -s 1 -d -1 -p AODV -e 48 -c 2 -a 0 -i 0 -k RTR
+ -t 1.007349386 -s 5 -d -1 -p AODV -e 48 -c 2 -a 0 -i 0 -k RTR 
- -t 1.007349386 -s 5 -d -1 -p AODV -e 48 -c 2 -a 0 -i 0 -k RTR
h -t 1.007349386 -s 5 -d -1 -p AODV -e 48 -c 2 -a 0 -i 0 -k RTR
+ -t 1.007606231 -s 0 -d -1 -p AODV -e 48 -c 2 -a 0 -i 0 -k RTR 
- -t 1.007606231 -s 0 -d -1 -p AODV -e 48 -c 2 -a 0 -i 0 -k RTR
h -t 1.007606231 -s 0 -d -1 -p AODV -e 48 -c 2 -a 0 -i 0 -k RTR
r -t 1.007795761 -s 1 -d -1 -p AODV -e 48 -c 2 -a 0 -i 0 -k RTR
r -t 1.007796007 -s 3 -d -1 -p AODV -e 48 -c 2 -a 0 -i 0 -k RTR
r -t 1.007796146 -s 0 -d -1 -p AODV -e 48 -c 2 -a 0 -i 0 -k RTR
r -t 1.007796482 -s 5 -d -1 -p AODV -e 48 -c 2 -a 0 -i 0 -k RTR
+ -t 1.008131420 -s 3 -d -1 -p AODV -e 48 -c 2 -a 0 -i 0 -k RTR 
- -t 1.008131420 -s 3 -d -1 -p AODV -e 48 -c 2 -a 0 -i 0 -k RTR
h -t 1.008131420 -s 3 -d -1 -p AODV -e 48 -c 2 -a 0 -i 0 -k RTR
r -t 1.008714288 -s 3 -d -1 -p AODV -e 48 -c 2 -a 0 -i 0 -k RTR
r -t 1.008714620 -s 2 -d -1 -p AODV -e 48 -c 2 -a 0 -i 0 -k RTR
r -t 1.008714653 -s 1 -d -1 -p AODV -e 48 -c 2 -a 0 -i 0 -k RTR
r -t 1.008714855 -s 5 -d -1 -p AODV -e 48 -c 2 -a 0 -i 0 -k RTR
r -t 1.008714926 -s 8 -d -1 -p AODV -e 48 -c 2 -a 0 -i 0 -k RTR
+ -t 1.009311377 -s 3 -d -1 -p AODV -e 48 -c 2 -a 0 -i 0 -k RTR 
- -t 1.009311377 -s 3 -d -1 -p AODV -e 48 -c 2 -a 0 -i 0 -k RTR
h -t 1.009311377 -s 3 -d -1 -p AODV -e 48 -c 2 -a 0 -i 0 -k RTR
r -t 1.009673502 -s 9 -d -1 -p AODV -e 48 -c 2 -a 0 -i 0 -k RTR
+ -t 1.009673502 -s 9 -d 5 -p AODV -e 44 -c 2 -a 0 -i 0 -k RTR 
- -t 1.009673502 -s 9 -d 5 -p AODV -e 44 -c 2 -a 0 -i 0 -k RTR
h -t 1.009673502 -s 9 -d 5 -p AODV -e 44 -c 2 -a 0 -i 0 -k RTR
+ -t 1.009868477 -s 5 -d -1 -p AODV -e 48 -c 2 -a 0 -i 0 -k RTR 
- -t 1.009868477 -s 5 -d -1 -p AODV -e 48 -c 2 -a 0 -i 0 -k RTR
h -t 1.009868477 -s 5 -d -1 -p AODV -e 48 -c 2 -a 0 -i 0 -k RTR
+ -t 1.010077545 -s 5 -d -1 -p AODV -e 48 -c 2 -a 0 -i 0 -k RTR 
- -t 1.010077545 -s 5 -d -1 -p AODV -e 48 -c 2 -a 0 -i 0 -k RTR
h -t 1.010077545 -s 5 -d -1 -p AODV -e 48 -c 2 -a 0 -i 0 -k RTR
+ -t 1.010588579 -s 8 -d -1 -p AODV -e 48 -c 2 -a 0 -i 0 -k RTR 
- -t 1.010588579 -s 8 -d -1 -p AODV -e 48 -c 2 -a 0 -i 0 -k RTR
h -t 1.010588579 -s 8 -d -1 -p AODV -e 48 -c 2 -a 0 -i 0 -k RTR
r -t 1.011955098 -s 0 -d -1 -p AODV -e 48 -c 2 -a 0 -i 0 -k RTR
+ -t 1.012281326 -s 0 -d -1 -p AODV -e 48 -c 2 -a 0 -i 0 -k RTR 
- -t 1.012281326 -s 0 -d -1 -p AODV -e 48 -c 2 -a 0 -i 0 -k RTR
h -t 1.012281326 -s 0 -d -1 -p AODV -e 48 -c 2 -a 0 -i 0 -k RTR
+ -t 1.012394729 -s 5 -d -1 -p AODV -e 48 -c 2 -a 0 -i 0 -k RTR 
- -t 1.012394729 -s 5 -d -1 -p AODV -e 48 -c 2 -a 0 -i 0 -k RTR
h -t 1.012394729 -s 5 -d -1 -p AODV -e 48 -c 2 -a 0 -i 0 -k RTR
r -t 1.013337570 -s 2 -d -1 -p AODV -e 48 -c 2 -a 0 -i 0 -k RTR
r -t 1.013337856 -s 3 -d -1 -p AODV -e 48 -c 2 -a 0 -i 0 -k RTR
r -t 1.013337988 -s 0 -d -1 -p AODV -e 48 -c 2 -a 0 -i 0 -k RTR
r -t 1.013338232 -s 5 -d -1 -p AODV -e 48 -c 2 -a 0 -i 0 -k RTR
r -t 1.014315660 -s 1 -d -1 -p AODV -e 48 -c 2 -a 0 -i 0 -k RTR
r -t 1.014315998 -s 0 -d -1 -p AODV -e 48 -c 2 -a 0 -i 0 -k RTR
r -t 1.015599777 -s 6 -d -1 -p AODV -e 48 -c 2 -a 0 -i 0 -k RTR
r -t 1.015899235 -s 9 -d -1 -p AODV -e 48 -c 2 -a 0 -i 0 -k RTR
r -t 1.016797235 -s 9 -d -1 -p AODV -e 48 -c 2 -a 0 -i 0 -k RTR
r -t 1.016797296 -s 0 -d -1 -p AODV -e 48 -c 2 -a 0 -i 0 -k RTR
r -t 1.016797318 -s 3 -d -1 -p AODV -e 48 -c 2 -a 0 -i 0 -k RTR
r -t 1.016797339 -s 1 -d -1 -p AODV -e 48 -c 2 -a 0 -i 0 -k RTR
r -t 1.016797398 -s 2 -d -1 -p AODV -e 48 -c 2 -a 0 -i 0 -k RTR
r -t 1.017835438 -s 3 -d -1 -p AODV -e 48 -c 2 -a 0 -i 0 -k RTR
r -t 1.017835771 -s 2 -d -1 -p AODV -e 48 -c 2 -a 0 -i 0 -k RTR
r -t 1.017835804 -s 1 -d -1 -p AODV -e 48 -c 2 -a 0 -i 0 -k RTR
r -t 1.017836006 -s 5 -d -1 -p AODV -e 48 -c 2 -a 0 -i 0 -k RTR
r -t 1.017836077 -s 8 -d -1 -p AODV -e 48 -c 2 -a 0 -i 0 -k RTR
+ -t 1.018111652 -s 8 -d -1 -p AODV -e 48 -c 2 -a 0 -i 0 -k RTR 
- -t 1.018111652 -s 8 -d -1 -p AODV -e 48 -c 2 -a 0 -i 0 -k RTR
h -t 1.018111652 -s 8 -d -1 -p AODV -e 48 -c 2 -a 0 -i 0 -k RTR
r -t 1.018753580 -s 0 -d -1 -p AODV -e 48 -c 2 -a 0 -i 0 -k RTR
r -t 1.018753773 -s 2 -d -1 -p AODV -e 48 -c 2 -a 0 -i 0 -k RTR
r -t 1.018753814 -s 1 -d -1 -p AODV -e 48 -c 2 -a 0 -i 0 -k RTR
r -t 1.018754169 -s 5 -d -1 -p AODV -e 48 -c 2 -a 0 -i 0 -k RTR
r -t 1.019651580 -s 0 -d -1 -p AODV -e 48 -c 2 -a 0 -i 0 -k RTR
r -t 1.019651773 -s 2 -d -1 -p AODV -e 48 -c 2 -a 0 -i 0 -k RTR
r -t 1.019651814 -s 1 -d -1 -p AODV -e 48 -c 2 -a 0 -i 0 -k RTR
r -t 1.019652169 -s 5 -d -1 -p AODV -e 48 -c 2 -a 0 -i 0 -k RTR
r -t 1.020710816 -s 9 -d -1 -p AODV -e 48 -c 2 -a 0 -i 0 -k RTR
r -t 1.020710878 -s 0 -d -1 -p AODV -e 48 -c 2 -a 0 -i 0 -k RTR
r -t 1.020710899 -s 3 -d -1 -p AODV -e 48 -c 2 -a 0 -i 0 -k RTR
r -t 1.020710920 -s 1 -d -1 -p AODV -e 48 -c 2 -a 0 -i 0 -k RTR
r -t 1.020710980 -s 2 -d -1 -p AODV -e 48 -c 2 -a 0 -i 0 -k RTR
r -t 1.021689010 -s 2 -d -1 -p AODV -e 48 -c 2 -a 0 -i 0 -k RTR
r -t 1.021689297 -s 3 -d -1 -p AODV -e 48 -c 2 -a 0 -i 0 -k RTR
r -t 1.021689428 -s 0 -d -1 -p AODV -e 48 -c 2 -a 0 -i 0 -k RTR
r -t 1.021689672 -s 5 -d -1 -p AODV -e 48 -c 2 -a 0 -i 0 -k RTR
+ -t 1.022345631 -s 9 -d -1 -p AODV -e 48 -c 2 -a 0 -i 0 -k RTR 
- -t 1.022345631 -s 9 -d -1 -p AODV -e 48 -c 2 -a 0 -i 0 -k RTR
h -t 1.022345631 -s 9 -d -1 -p AODV -e 48 -c 2 -a 0 -i 0 -k RTR
+ -t 1.022586509 -s 6 -d -1 -p AODV -e 48 -c 2 -a 0 -i 0 -k RTR 
- -t 1.022586509 -s 6 -d -1 -p AODV -e 48 -c 2 -a 0 -i 0 -k RTR
h -t 1.022586509 -s 6 -d -1 -p AODV -e 48 -c 2 -a 0 -i 0 -k RTR
r -t 1.023774811 -s 4 -d -1 -p AODV -e 48 -c 2 -a 0 -i 0 -k RTR
+ -t 1.024665791 -s 9 -d -1 -p AODV -e 48 -c 2 -a 0 -i 0 -k RTR 
- -t 1.024665791 -s 9 -d -1 -p AODV -e 48 -c 2 -a 0 -i 0 -k RTR
h -t 1.024665791 -s 9 -d -1 -p AODV -e 48 -c 2 -a 0 -i 0 -k RTR
r -t 1.025018262 -s 5 -d -1 -p AODV -e 48 -c 2 -a 0 -i 0 -k RTR
r -t 1.025956262 -s 5 -d -1 -p AODV -e 48 -c 2 -a 0 -i 0 -k RTR
+ -t 1.027619557 -s 5 -d 0 -p AODV -e 44 -c 2 -a 0 -i 0 -k RTR 
- -t 1.027619557 -s 5 -d 0 -p AODV -e 44 -c 2 -a 0 -i 0 -k RTR
h -t 1.027619557 -s 5 -d 0 -p AODV -e 44 -c 2 -a 0 -i 0 -k RTR
+ -t 1.028437774 -s 9 -d -1 -p AODV -e 48 -c 2 -a 0 -i 0 -k RTR 
- -t 1.028437774 -s 9 -d -1 -p AODV -e 48 -c 2 -a 0 -i 0 -k RTR
h -t 1.028437774 -s 9 -d -1 -p AODV -e 48 -c 2 -a 0 -i 0 -k RTR
r -t 1.029850852 -s 5 -d -1 -p AODV -e 48 -c 2 -a 0 -i 0 -k RTR
+ -t 1.033969605 -s 0 -d 5 -p tcp -e 40 -c 2 -a 0 -i 0 -k RTR 
- -t 1.033969605 -s 0 -d 5 -p tcp -e 40 -c 2 -a 0 -i 0 -k RTR
h -t 1.033969605 -s 0 -d 5 -p tcp -e 40 -c 2 -a 0 -i 0 -k RTR
+ -t 1.036055733 -s 5 -d 9 -p tcp -e 40 -c 2 -a 0 -i 0 -k RTR 
- -t 1.036055733 -s 5 -d 9 -p tcp -e 40 -c 2 -a 0 -i 0 -k RTR
h -t 1.036055733 -s 5 -d 9 -p tcp -e 40 -c 2 -a 0 -i 0 -k RTR
r -t 1.037941675 -s 9 -d 9 -p tcp -e 40 -c 2 -a 0 -i 0 -k AGT
+ -t 1.037941675 -s 9 -d -1 -p ack -e 40 -c 2 -a 0 -i 5 -k AGT 
- -t 1.037941675 -s 9 -d -1 -p ack -e 40 -c 2 -a 0 -i 5 -k AGT
h -t 1.037941675 -s 9 -d -1 -p ack -e 40 -c 2 -a 0 -i 5 -k AGT
+ -t 1.037941675 -s 9 -d 5 -p ack -e 40 -c 2 -a 0 -i 5 -k RTR 
- -t 1.037941675 -s 9 -d 5 -p ack -e 40 -c 2 -a 0 -i 5 -k RTR
h -t 1.037941675 -s 9 -d 5 -p ack -e 40 -c 2 -a 0 -i 5 -k RTR
+ -t 1.039887618 -s 5 -d 0 -p ack -e 40 -c 2 -a 0 -i 5 -k RTR 
- -t 1.039887618 -s 5 -d 0 -p ack -e 40 -c 2 -a 0 -i 5 -k RTR
h -t 1.039887618 -s 5 -d 0 -p ack -e 40 -c 2 -a 0 -i 5 -k RTR
r -t 1.042193746 -s 0 -d 0 -p ack -e 40 -c 2 -a 0 -i 5 -k AGT
+ -t 1.042193746 -s 0 -d -1 -p tcp -e 1540 -c 2 -a 0 -i 6 -k AGT 
- -t 1.042193746 -s 0 -d -1 -p tcp -e 1540 -c 2 -a 0 -i 6 -k AGT
h -t 1.042193746 -s 0 -d -1 -p tcp -e 1540 -c 2 -a 0 -i 6 -k AGT
+ -t 1.042193746 -s 0 -d -1 -p tcp -e 1540 -c 2 -a 0 -i 7 -k AGT 
- -t 1.042193746 -s 0 -d -1 -p tcp -e 1540 -c 2 -a 0 -i 7 -k AGT
h -t 1.042193746 -s 0 -d -1 -p tcp -e 1540 -c 2 -a 0 -i 7 -k AGT
+ -t 1.042193746 -s 0 -d 5 -p tcp -e 1540 -c 2 -a 0 -i 6 -k RTR 
- -t 1.042193746 -s 0 -d 5 -p tcp -e 1540 -c 2 -a 0 -i 6 -k RTR
h -t 1.042193746 -s 0 -d 5 -p tcp -e 1540 -c 2 -a 0 -i 6 -k RTR
+ -t 1.042193746 -s 0 -d 5 -p tcp -e 1540 -c 2 -a 0 -i 7 -k RTR 
- -t 1.042193746 -s 0 -d 5 -p tcp -e 1540 -c 2 -a 0 -i 7 -k RTR
h -t 1.042193746 -s 0 -d 5 -p tcp -e 1540 -c 2 -a 0 -i 7 -k RTR
+ -t 1.056119875 -s 5 -d 9 -p tcp -e 1540 -c 2 -a 0 -i 6 -k RTR 
- -t 1.056119875 -s 5 -d 9 -p tcp -e 1540 -c 2 -a 0 -i 6 -k RTR
h -t 1.056119875 -s 5 -d 9 -p tcp -e 1540 -c 2 -a 0 -i 6 -k RTR
+ -t 1.070246713 -s 5 -d 9 -p tcp -e 1540 -c 2 -a 0 -i 7 -k RTR 
- -t 1.070246713 -s 5 -d 9 -p tcp -e 1540 -c 2 -a 0 -i 7 -k RTR
h -t 1.070246713 -s 5 -d 9 -p tcp -e 1540 -c 2 -a 0 -i 7 -k RTR
r -t 1.084212656 -s 9 -d 9 -p tcp -e 1540 -c 2 -a 0 -i 6 -k AGT
+ -t 1.084212656 -s 9 -d -1 -p ack -e 40 -c 2 -a 0 -i 8 -k AGT 
- -t 1.084212656 -s 9 -d -1 -p ack -e 40 -c 2 -a 0 -i 8 -k AGT
h -t 1.084212656 -s 9 -d -1 -p ack -e 40 -c 2 -a 0 -i 8 -k AGT
+ -t 1.084212656 -s 9 -d 5 -p ack -e 40 -c 2 -a 0 -i 8 -k RTR 
- -t 1.084212656 -s 9 -d 5 -p ack -e 40 -c 2 -a 0 -i 8 -k RTR
h -t 1.084212656 -s 9 -d 5 -p ack -e 40 -c 2 -a 0 -i 8 -k RTR
+ -t 1.086338600 -s 5 -d 0 -p ack -e 40 -c 2 -a 0 -i 8 -k RTR 
- -t 1.086338600 -s 5 -d 0 -p ack -e 40 -c 2 -a 0 -i 8 -k RTR
h -t 1.086338600 -s 5 -d 0 -p ack -e 40 -c 2 -a 0 -i 8 -k RTR
r -t 1.100204543 -s 9 -d 9 -p tcp -e 1540 -c 2 -a 0 -i 7 -k AGT
+ -t 1.100204543 -s 9 -d -1 -p ack -e 40 -c 2 -a 0 -i 9 -k AGT 
- -t 1.100204543 -s 9 -d -1 -p ack -e 40 -c 2 -a 0 -i 9 -k AGT
h -t 1.100204543 -s 9 -d -1 -p ack -e 40 -c 2 -a 0 -i 9 -k AGT
+ -t 1.100204543 -s 9 -d 5 -p ack -e 40 -c 2 -a 0 -i 9 -k RTR 
- -t 1.100204543 -s 9 -d 5 -p ack -e 40 -c 2 -a 0 -i 9 -k RTR
h -t 1.100204543 -s 9 -d 5 -p ack -e 40 -c 2 -a 0 -i 9 -k RTR
r -t 1.102251320 -s 0 -d 0 -p ack -e 40 -c 2 -a 0 -i 8 -k AGT
+ -t 1.102251320 -s 0 -d -1 -p tcp -e 1540 -c 2 -a 0 -i 10 -k AGT 
- -t 1.102251320 -s 0 -d -1 -p tcp -e 1540 -c 2 -a 0 -i 10 -k AGT
h -t 1.102251320 -s 0 -d -1 -p tcp -e 1540 -c 2 -a 0 -i 10 -k AGT
+ -t 1.102251320 -s 0 -d -1 -p tcp -e 1540 -c 2 -a 0 -i 11 -k AGT 
- -t 1.102251320 -s 0 -d -1 -p tcp -e 1540 -c 2 -a 0 -i 11 -k AGT
h -t 1.102251320 -s 0 -d -1 -p tcp -e 1540 -c 2 -a 0 -i 11 -k AGT
+ -t 1.102251320 -s 0 -d 5 -p tcp -e 1540 -c 2 -a 0 -i 10 -k RTR 
- -t 1.102251320 -s 0 -d 5 -p tcp -e 1540 -c 2 -a 0 -i 10 -k RTR
h -t 1.102251320 -s 0 -d 5 -p tcp -e 1540 -c 2 -a 0 -i 10 -k RTR
+ -t 1.102251320 -s 0 -d 5 -p tcp -e 1540 -c 2 -a 0 -i 11 -k RTR 
- -t 1.102251320 -s 0 -d 5 -p tcp -e 1540 -c 2 -a 0 -i 11 -k RTR
h -t 1.102251320 -s 0 -d 5 -p tcp -e 1540 -c 2 -a 0 -i 11 -k RTR
+ -t 1.116237450 -s 5 -d 9 -p tcp -e 1540 -c 2 -a 0 -i 10 -k RTR 
- -t 1.116237450 -s 5 -d 9 -p tcp -e 1540 -c 2 -a 0 -i 10 -k RTR
h -t 1.116237450 -s 5 -d 9 -p tcp -e 1540 -c 2 -a 0 -i 10 -k RTR
r -t 1.130083394 -s 9 -d 9 -p tcp -e 1540 -c 2 -a 0 -i 10 -k AGT
+ -t 1.130083394 -s 9 -d -1 -p ack -e 40 -c 2 -a 0 -i 12 -k AGT 
- -t 1.130083394 -s 9 -d -1 -p ack -e 40 -c 2 -a 0 -i 12 -k AGT
h -t 1.130083394 -s 9 -d -1 -p ack -e 40 -c 2 -a 0 -i 12 -k AGT
+ -t 1.130083394 -s 9 -d 5 -p ack -e 40 -c 2 -a 0 -i 12 -k RTR 
- -t 1.130083394 -s 9 -d 5 -p ack -e 40 -c 2 -a 0 -i 12 -k RTR
h -t 1.130083394 -s 9 -d 5 -p ack -e 40 -c 2 -a 0 -i 12 -k RTR
+ -t 1.132269338 -s 5 -d 0 -p ack -e 40 -c 2 -a 0 -i 9 -k RTR 
- -t 1.132269338 -s 5 -d 0 -p ack -e 40 -c 2 -a 0 -i 9 -k RTR
h -t 1.132269338 -s 5 -d 0 -p ack -e 40 -c 2 -a 0 -i 9 -k RTR
r -t 1.134175468 -s 0 -d 0 -p ack -e 40 -c 2 -a 0 -i 9 -k AGT
+ -t 1.134175468 -s 0 -d -1 -p tcp -e 1540 -c 2 -a 0 -i 13 -k AGT 
- -t 1.134175468 -s 0 -d -1 -p tcp -e 1540 -c 2 -a 0 -i 13 -k AGT
h -t 1.134175468 -s 0 -d -1 -p tcp -e 1540 -c 2 -a 0 -i 13 -k AGT
+ -t 1.134175468 -s 0 -d -1 -p tcp -e 1540 -c 2 -a 0 -i 14 -k AGT 
- -t 1.134175468 -s 0 -d -1 -p tcp -e 1540 -c 2 -a 0 -i 14 -k AGT
h -t 1.134175468 -s 0 -d -1 -p tcp -e 1540 -c 2 -a 0 -i 14 -k AGT
+ -t 1.134175468 -s 0 -d 5 -p tcp -e 1540 -c 2 -a 0 -i 13 -k RTR 
- -t 1.134175468 -s 0 -d 5 -p tcp -e 1540 -c 2 -a 0 -i 13 -k RTR
h -t 1.134175468 -s 0 -d 5 -p tcp -e 1540 -c 2 -a 0 -i 13 -k RTR
+ -t 1.134175468 -s 0 -d 5 -p tcp -e 1540 -c 2 -a 0 -i 14 -k RTR 
- -t 1.134175468 -s 0 -d 5 -p tcp -e 1540 -c 2 -a 0 -i 14 -k RTR
h -t 1.134175468 -s 0 -d 5 -p tcp -e 1540 -c 2 -a 0 -i 14 -k RTR
+ -t 1.148121598 -s 5 -d 9 -p tcp -e 1540 -c 2 -a 0 -i 11 -k RTR 
- -t 1.148121598 -s 5 -d 9 -p tcp -e 1540 -c 2 -a 0 -i 11 -k RTR
h -t 1.148121598 -s 5 -d 9 -p tcp -e 1540 -c 2 -a 0 -i 11 -k RTR
r -t 1.162107543 -s 9 -d 9 -p tcp -e 1540 -c 2 -a 0 -i 11 -k AGT
+ -t 1.162107543 -s 9 -d -1 -p ack -e 40 -c 2 -a 0 -i 15 -k AGT 
- -t 1.162107543 -s 9 -d -1 -p ack -e 40 -c 2 -a 0 -i 15 -k AGT
h -t 1.162107543 -s 9 -d -1 -p ack -e 40 -c 2 -a 0 -i 15 -k AGT
+ -t 1.162107543 -s 9 -d 5 -p ack -e 40 -c 2 -a 0 -i 15 -k RTR 
- -t 1.162107543 -s 9 -d 5 -p ack -e 40 -c 2 -a 0 -i 15 -k RTR
h -t 1.162107543 -s 9 -d 5 -p ack -e 40 -c 2 -a 0 -i 15 -k RTR
+ -t 1.164153488 -s 5 -d 0 -p ack -e 40 -c 2 -a 0 -i 12 -k RTR 
- -t 1.164153488 -s 5 -d 0 -p ack -e 40 -c 2 -a 0 -i 12 -k RTR
h -t 1.164153488 -s 5 -d 0 -p ack -e 40 -c 2 -a 0 -i 12 -k RTR
+ -t 1.178090114 -s 5 -d 9 -p tcp -e 1540 -c 2 -a 0 -i 13 -k RTR 
- -t 1.178090114 -s 5 -d 9 -p tcp -e 1540 -c 2 -a 0 -i 13 -k RTR
h -t 1.178090114 -s 5 -d 9 -p tcp -e 1540 -c 2 -a 0 -i 13 -k RTR
r -t 1.179956245 -s 0 -d 0 -p ack -e 40 -c 2 -a 0 -i 12 -k AGT
+ -t 1.179956245 -s 0 -d -1 -p tcp -e 1540 -c 2 -a 0 -i 16 -k AGT 
- -t 1.179956245 -s 0 -d -1 -p tcp -e 1540 -c 2 -a 0 -i 16 -k AGT
h -t 1.179956245 -s 0 -d -1 -p tcp -e 1540 -c 2 -a 0 -i 16 -k AGT
+ -t 1.179956245 -s 0 -d -1 -p tcp -e 1540 -c 2 -a 0 -i 17 -k AGT 
- -t 1.179956245 -s 0 -d -1 -p tcp -e 1540 -c 2 -a 0 -i 17 -k AGT
h -t 1.179956245 -s 0 -d -1 -p tcp -e 1540 -c 2 -a 0 -i 17 -k AGT
+ -t 1.179956245 -s 0 -d 5 -p tcp -e 1540 -c 2 -a 0 -i 16 -k RTR 
- -t 1.179956245 -s 0 -d 5 -p tcp -e 1540 -c 2 -a 0 -i 16 -k RTR
h -t 1.179956245 -s 0 -d 5 -p tcp -e 1540 -c 2 -a 0 -i 16 -k RTR
+ -t 1.179956245 -s 0 -d 5 -p tcp -e 1540 -c 2 -a 0 -i 17 -k RTR 
- -t 1.179956245 -s 0 -d 5 -p tcp -e 1540 -c 2 -a 0 -i 17 -k RTR
h -t 1.179956245 -s 0 -d 5 -p tcp -e 1540 -c 2 -a 0 -i 17 -k RTR
+ -t 1.194062376 -s 5 -d 9 -p tcp -e 1540 -c 2 -a 0 -i 14 -k RTR 
- -t 1.194062376 -s 5 -d 9 -p tcp -e 1540 -c 2 -a 0 -i 14 -k RTR
h -t 1.194062376 -s 5 -d 9 -p tcp -e 1540 -c 2 -a 0 -i 14 -k RTR
r -t 1.208028321 -s 9 -d 9 -p tcp -e 1540 -c 2 -a 0 -i 13 -k AGT
+ -t 1.208028321 -s 9 -d -1 -p ack -e 40 -c 2 -a 0 -i 18 -k AGT 
- -t 1.208028321 -s 9 -d -1 -p ack -e 40 -c 2 -a 0 -i 18 -k AGT
h -t 1.208028321 -s 9 -d -1 -p ack -e 40 -c 2 -a 0 -i 18 -k AGT
+ -t 1.208028321 -s 9 -d 5 -p ack -e 40 -c 2 -a 0 -i 18 -k RTR 
- -t 1.208028321 -s 9 -d 5 -p ack -e 40 -c 2 -a 0 -i 18 -k RTR
h -t 1.208028321 -s 9 -d 5 -p ack -e 40 -c 2 -a 0 -i 18 -k RTR
+ -t 1.210034267 -s 5 -d 0 -p ack -e 40 -c 2 -a 0 -i 15 -k RTR 
- -t 1.210034267 -s 5 -d 0 -p ack -e 40 -c 2 -a 0 -i 15 -k RTR
h -t 1.210034267 -s 5 -d 0 -p ack -e 40 -c 2 -a 0 -i 15 -k RTR
r -t 1.224000212 -s 9 -d 9 -p tcp -e 1540 -c 2 -a 0 -i 14 -k AGT
+ -t 1.224000212 -s 9 -d -1 -p ack -e 40 -c 2 -a 0 -i 19 -k AGT 
- -t 1.224000212 -s 9 -d -1 -p ack -e 40 -c 2 -a 0 -i 19 -k AGT
h -t 1.224000212 -s 9 -d -1 -p ack -e 40 -c 2 -a 0 -i 19 -k AGT
+ -t 1.224000212 -s 9 -d 5 -p ack -e 40 -c 2 -a 0 -i 19 -k RTR 
- -t 1.224000212 -s 9 -d 5 -p ack -e 40 -c 2 -a 0 -i 19 -k RTR
h -t 1.224000212 -s 9 -d 5 -p ack -e 40 -c 2 -a 0 -i 19 -k RTR
r -t 1.226732993 -s 0 -d 0 -p ack -e 40 -c 2 -a 0 -i 15 -k AGT
+ -t 1.226732993 -s 0 -d -1 -p tcp -e 1540 -c 2 -a 0 -i 20 -k AGT 
- -t 1.226732993 -s 0 -d -1 -p tcp -e 1540 -c 2 -a 0 -i 20 -k AGT
h -t 1.226732993 -s 0 -d -1 -p tcp -e 1540 -c 2 -a 0 -i 20 -k AGT
+ -t 1.226732993 -s 0 -d -1 -p tcp -e 1540 -c 2 -a 0 -i 21 -k AGT 
- -t 1.226732993 -s 0 -d -1 -p tcp -e 1540 -c 2 -a 0 -i 21 -k AGT
h -t 1.226732993 -s 0 -d -1 -p tcp -e 1540 -c 2 -a 0 -i 21 -k AGT
+ -t 1.226732993 -s 0 -d 5 -p tcp -e 1540 -c 2 -a 0 -i 20 -k RTR 
- -t 1.226732993 -s 0 -d 5 -p tcp -e 1540 -c 2 -a 0 -i 20 -k RTR
h -t 1.226732993 -s 0 -d 5 -p tcp -e 1540 -c 2 -a 0 -i 20 -k RTR
+ -t 1.226732993 -s 0 -d 5 -p tcp -e 1540 -c 2 -a 0 -i 21 -k RTR 
- -t 1.226732993 -s 0 -d 5 -p tcp -e 1540 -c 2 -a 0 -i 21 -k RTR
h -t 1.226732993 -s 0 -d 5 -p tcp -e 1540 -c 2 -a 0 -i 21 -k RTR
+ -t 1.240719124 -s 5 -d 9 -p tcp -e 1540 -c 2 -a 0 -i 16 -k RTR 
- -t 1.240719124 -s 5 -d 9 -p tcp -e 1540 -c 2 -a 0 -i 16 -k RTR
h -t 1.240719124 -s 5 -d 9 -p tcp -e 1540 -c 2 -a 0 -i 16 -k RTR
r -t 1.254605071 -s 9 -d 9 -p tcp -e 1540 -c 2 -a 0 -i 16 -k AGT
+ -t 1.254605071 -s 9 -d -1 -p ack -e 40 -c 2 -a 0 -i 22 -k AGT 
- -t 1.254605071 -s 9 -d -1 -p ack -e 40 -c 2 -a 0 -i 22 -k AGT
h -t 1.254605071 -s 9 -d -1 -p ack -e 40 -c 2 -a 0 -i 22 -k AGT
+ -t 1.254605071 -s 9 -d 5 -p ack -e 40 -c 2 -a 0 -i 22 -k RTR 
- -t 1.254605071 -s 9 -d 5 -p ack -e 40 -c 2 -a 0 -i 22 -k RTR
h -t 1.254605071 -s 9 -d 5 -p ack -e 40 -c 2 -a 0 -i 22 -k RTR
+ -t 1.269256347 -s 5 -d 9 -p tcp -e 1540 -c 2 -a 0 -i 17 -k RTR 
- -t 1.269256347 -s 5 -d 9 -p tcp -e 1540 -c 2 -a 0 -i 17 -k RTR
h -t 1.269256347 -s 5 -d 9 -p tcp -e 1540 -c 2 -a 0 -i 17 -k RTR
+ -t 1.283103190 -s 5 -d 9 -p tcp -e 1540 -c 2 -a 0 -i 20 -k RTR 
- -t 1.283103190 -s 5 -d 9 -p tcp -e 1540 -c 2 -a 0 -i 20 -k RTR
h -t 1.283103190 -s 5 -d 9 -p tcp -e 1540 -c 2 -a 0 -i 20 -k RTR
+ -t 1.296950034 -s 5 -d 9 -p tcp -e 1540 -c 2 -a 0 -i 21 -k RTR 
- -t 1.296950034 -s 5 -d 9 -p tcp -e 1540 -c 2 -a 0 -i 21 -k RTR
h -t 1.296950034 -s 5 -d 9 -p tcp -e 1540 -c 2 -a 0 -i 21 -k RTR
+ -t 1.298846414 -s 5 -d 0 -p ack -e 40 -c 2 -a 0 -i 18 -k RTR 
- -t 1.298846414 -s 5 -d 0 -p ack -e 40 -c 2 -a 0 -i 18 -k RTR
h -t 1.298846414 -s 5 -d 0 -p ack -e 40 -c 2 -a 0 -i 18 -k RTR
+ -t 1.300933011 -s 5 -d 0 -p ack -e 40 -c 2 -a 0 -i 19 -k RTR 
- -t 1.300933011 -s 5 -d 0 -p ack -e 40 -c 2 -a 0 -i 19 -k RTR
h -t 1.300933011 -s 5 -d 0 -p ack -e 40 -c 2 -a 0 -i 19 -k RTR
+ -t 1.302779607 -s 5 -d 0 -p ack -e 40 -c 2 -a 0 -i 22 -k RTR 
- -t 1.302779607 -s 5 -d 0 -p ack -e 40 -c 2 -a 0 -i 22 -k RTR
h -t 1.302779607 -s 5 -d 0 -p ack -e 40 -c 2 -a 0 -i 22 -k RTR
r -t 1.316645555 -s 9 -d 9 -p tcp -e 1540 -c 2 -a 0 -i 17 -k AGT
+ -t 1.316645555 -s 9 -d -1 -p ack -e 40 -c 2 -a 0 -i 23 -k AGT 
- -t 1.316645555 -s 9 -d -1 -p ack -e 40 -c 2 -a 0 -i 23 -k AGT
h -t 1.316645555 -s 9 -d -1 -p ack -e 40 -c 2 -a 0 -i 23 -k AGT
+ -t 1.316645555 -s 9 -d 5 -p ack -e 40 -c 2 -a 0 -i 23 -k RTR 
- -t 1.316645555 -s 9 -d 5 -p ack -e 40 -c 2 -a 0 -i 23 -k RTR
h -t 1.316645555 -s 9 -d 5 -p ack -e 40 -c 2 -a 0 -i 23 -k RTR
+ -t 1.318851502 -s 5 -d 0 -p ack -e 40 -c 2 -a 0 -i 23 -k RTR 
- -t 1.318851502 -s 5 -d 0 -p ack -e 40 -c 2 -a 0 -i 23 -k RTR
h -t 1.318851502 -s 5 -d 0 -p ack -e 40 -c 2 -a 0 -i 23 -k RTR
r -t 1.332737450 -s 9 -d 9 -p tcp -e 1540 -c 2 -a 0 -i 20 -k AGT
+ -t 1.332737450 -s 9 -d -1 -p ack -e 40 -c 2 -a 0 -i 24 -k AGT 
- -t 1.332737450 -s 9 -d -1 -p ack -e 40 -c 2 -a 0 -i 24 -k AGT
h -t 1.332737450 -s 9 -d -1 -p ack -e 40 -c 2 -a 0 -i 24 -k AGT
+ -t 1.332737450 -s 9 -d 5 -p ack -e 40 -c 2 -a 0 -i 24 -k RTR 
- -t 1.332737450 -s 9 -d 5 -p ack -e 40 -c 2 -a 0 -i 24 -k RTR
h -t 1.332737450 -s 9 -d 5 -p ack -e 40 -c 2 -a 0 -i 24 -k RTR
+ -t 1.334883398 -s 5 -d 0 -p ack -e 40 -c 2 -a 0 -i 24 -k RTR 
- -t 1.334883398 -s 5 -d 0 -p ack -e 40 -c 2 -a 0 -i 24 -k RTR
h -t 1.334883398 -s 5 -d 0 -p ack -e 40 -c 2 -a 0 -i 24 -k RTR
r -t 1.348869346 -s 9 -d 9 -p tcp -e 1540 -c 2 -a 0 -i 21 -k AGT
+ -t 1.348869346 -s 9 -d -1 -p ack -e 40 -c 2 -a 0 -i 25 -k AGT 
- -t 1.348869346 -s 9 -d -1 -p ack -e 40 -c 2 -a 0 -i 25 -k AGT
h -t 1.348869346 -s 9 -d -1 -p ack -e 40 -c 2 -a 0 -i 25 -k AGT
+ -t 1.348869346 -s 9 -d 5 -p ack -e 40 -c 2 -a 0 -i 25 -k RTR 
- -t 1.348869346 -s 9 -d 5 -p ack -e 40 -c 2 -a 0 -i 25 -k RTR
h -t 1.348869346 -s 9 -d 5 -p ack -e 40 -c 2 -a 0 -i 25 -k RTR
+ -t 1.350855294 -s 5 -d 0 -p ack -e 40 -c 2 -a 0 -i 25 -k RTR 
- -t 1.350855294 -s 5 -d 0 -p ack -e 40 -c 2 -a 0 -i 25 -k RTR
h -t 1.350855294 -s 5 -d 0 -p ack -e 40 -c 2 -a 0 -i 25 -k RTR
r -t 1.352701428 -s 0 -d 0 -p ack -e 40 -c 2 -a 0 -i 18 -k AGT
+ -t 1.352701428 -s 0 -d -1 -p tcp -e 1540 -c 2 -a 0 -i 26 -k AGT 
- -t 1.352701428 -s 0 -d -1 -p tcp -e 1540 -c 2 -a 0 -i 26 -k AGT
h -t 1.352701428 -s 0 -d -1 -p tcp -e 1540 -c 2 -a 0 -i 26 -k AGT
+ -t 1.352701428 -s 0 -d -1 -p tcp -e 1540 -c 2 -a 0 -i 27 -k AGT 
- -t 1.352701428 -s 0 -d -1 -p tcp -e 1540 -c 2 -a 0 -i 27 -k AGT
h -t 1.352701428 -s 0 -d -1 -p tcp -e 1540 -c 2 -a 0 -i 27 -k AGT
+ -t 1.352701428 -s 0 -d 5 -p tcp -e 1540 -c 2 -a 0 -i 26 -k RTR 
- -t 1.352701428 -s 0 -d 5 -p tcp -e 1540 -c 2 -a 0 -i 26 -k RTR
h -t 1.352701428 -s 0 -d 5 -p tcp -e 1540 -c 2 -a 0 -i 26 -k RTR
+ -t 1.352701428 -s 0 -d 5 -p tcp -e 1540 -c 2 -a 0 -i 27 -k RTR 
- -t 1.352701428 -s 0 -d 5 -p tcp -e 1540 -c 2 -a 0 -i 27 -k RTR
h -t 1.352701428 -s 0 -d 5 -p tcp -e 1540 -c 2 -a 0 -i 27 -k RTR
r -t 1.354668273 -s 0 -d 0 -p ack -e 40 -c 2 -a 0 -i 19 -k AGT
+ -t 1.354668273 -s 0 -d -1 -p tcp -e 1540 -c 2 -a 0 -i 28 -k AGT 
- -t 1.354668273 -s 0 -d -1 -p tcp -e 1540 -c 2 -a 0 -i 28 -k AGT
h -t 1.354668273 -s 0 -d -1 -p tcp -e 1540 -c 2 -a 0 -i 28 -k AGT
+ -t 1.354668273 -s 0 -d -1 -p tcp -e 1540 -c 2 -a 0 -i 29 -k AGT 
- -t 1.354668273 -s 0 -d -1 -p tcp -e 1540 -c 2 -a 0 -i 29 -k AGT
h -t 1.354668273 -s 0 -d -1 -p tcp -e 1540 -c 2 -a 0 -i 29 -k AGT
+ -t 1.354668273 -s 0 -d 5 -p tcp -e 1540 -c 2 -a 0 -i 28 -k RTR 
- -t 1.354668273 -s 0 -d 5 -p tcp -e 1540 -c 2 -a 0 -i 28 -k RTR
h -t 1.354668273 -s 0 -d 5 -p tcp -e 1540 -c 2 -a 0 -i 28 -k RTR
+ -t 1.354668273 -s 0 -d 5 -p tcp -e 1540 -c 2 -a 0 -i 29 -k RTR 
- -t 1.354668273 -s 0 -d 5 -p tcp -e 1540 -c 2 -a 0 -i 29 -k RTR
h -t 1.354668273 -s 0 -d 5 -p tcp -e 1540 -c 2 -a 0 -i 29 -k RTR
+ -t 1.368534407 -s 5 -d 9 -p tcp -e 1540 -c 2 -a 0 -i 26 -k RTR 
- -t 1.368534407 -s 5 -d 9 -p tcp -e 1540 -c 2 -a 0 -i 26 -k RTR
h -t 1.368534407 -s 5 -d 9 -p tcp -e 1540 -c 2 -a 0 -i 26 -k RTR
+ -t 1.382361253 -s 5 -d 9 -p tcp -e 1540 -c 2 -a 0 -i 27 -k RTR 
- -t 1.382361253 -s 5 -d 9 -p tcp -e 1540 -c 2 -a 0 -i 27 -k RTR
h -t 1.382361253 -s 5 -d 9 -p tcp -e 1540 -c 2 -a 0 -i 27 -k RTR
+ -t 1.396288099 -s 5 -d 9 -p tcp -e 1540 -c 2 -a 0 -i 28 -k RTR 
- -t 1.396288099 -s 5 -d 9 -p tcp -e 1540 -c 2 -a 0 -i 28 -k RTR
h -t 1.396288099 -s 5 -d 9 -p tcp -e 1540 -c 2 -a 0 -i 28 -k RTR
+ -t 1.410114945 -s 5 -d 9 -p tcp -e 1540 -c 2 -a 0 -i 29 -k RTR 
- -t 1.410114945 -s 5 -d 9 -p tcp -e 1540 -c 2 -a 0 -i 29 -k RTR
h -t 1.410114945 -s 5 -d 9 -p tcp -e 1540 -c 2 -a 0 -i 29 -k RTR
r -t 1.412041081 -s 0 -d 0 -p ack -e 40 -c 2 -a 0 -i 22 -k AGT
+ -t 1.412041081 -s 0 -d -1 -p tcp -e 1540 -c 2 -a 0 -i 30 -k AGT 
- -t 1.412041081 -s 0 -d -1 -p tcp -e 1540 -c 2 -a 0 -i 30 -k AGT
h -t 1.412041081 -s 0 -d -1 -p tcp -e 1540 -c 2 -a 0 -i 30 -k AGT
+ -t 1.412041081 -s 0 -d -1 -p tcp -e 1540 -c 2 -a 0 -i 31 -k AGT 