s 1.208532666 _0_ AGT  --- 14 tcp 41 [0 0 0 0] ------- [0:0 9:0 32 0] [1 0] 0 0
r 1.208532666 _0_ RTR  --- 14 tcp 41 [0 0 0 0] ------- [0:0 9:0 32 0] [1 0] 0 0
s 1.208532666 _0_ AGT  --- 15 tcp 41 [0 0 0 0] ------- [0:0 9:0 32 0] [2 0] 0 0
r 1.208532666 _0_ RTR  --- 15 tcp 41 [0 0 0 0] ------- [0:0 9:0 32 0] [2 0] 0 0
s 1.208532666 _0_ RTR  --- 14 tcp 41 [0 0 0 0] ------- [0:0 9:0 30 5] [1 0] 0 0
s 1.208532666 _0_ RTR  --- 15 tcp 41 [0 0 0 0] ------- [0:0 9:0 30 5] [2 0] 0 0
r 1.210366777 _5_ RTR  --- 14 tcp 41 [13a 5 0 800] ------- [0:0 9:0 30 5] [1 0] 1 0
f 1.210366777 _5_ RTR  --- 14 tcp 41 [13a 5 0 800] ------- [0:0 9:0 29 11] [1 0] 1 0
r 1.212521592 _5_ RTR  --- 15 tcp 41 [13a 5 0 800] ------- [0:0 9:0 30 5] [2 0] 1 0
f 1.212521592 _5_ RTR  --- 15 tcp 41 [13a 5 0 800] ------- [0:0 9:0 29 11] [2 0] 1 0
r 1.215755046 _11_ RTR  --- 14 tcp 41 [13a b 5 800] ------- [0:0 9:0 29 11] [1 0] 2 0
f 1.215755046 _11_ RTR  --- 14 tcp 41 [13a b 5 800] ------- [0:0 9:0 28 8] [1 0] 2 0
r 1.217948711 _8_ RTR  --- 14 tcp 41 [13a 8 b 800] ------- [0:0 9:0 28 8] [1 0] 3 0
f 1.217948711 _8_ RTR  --- 14 tcp 41 [13a 8 b 800] ------- [0:0 9:0 27 16] [1 0] 3 0
r 1.220167078 _11_ RTR  --- 15 tcp 41 [13a b 5 800] ------- [0:0 9:0 29 11] [2 0] 2 0
f 1.220167078 _11_ RTR  --- 15 tcp 41 [13a b 5 800] ------- [0:0 9:0 28 8] [2 0] 2 0
r 1.222170912 _16_ RTR  --- 14 tcp 41 [13a 10 8 800] ------- [0:0 9:0 27 16] [1 0] 4 0
f 1.222170912 _16_ RTR  --- 14 tcp 41 [13a 10 8 800] ------- [0:0 9:0 26 9] [1 0] 4 0
r 1.224245311 _9_ AGT  --- 14 tcp 41 [13a 9 10 800] ------- [0:0 9:0 26 9] [1 0] 5 0
s 1.224245311 _9_ AGT  --- 16 ack 40 [0 0 0 0] ------- [9:0 0:0 32 0] [1 0] 0 0
r 1.224245311 _9_ RTR  --- 16 ack 40 [0 0 0 0] ------- [9:0 0:0 32 0] [1 0] 0 0
s 1.224245311 _9_ RTR  --- 16 ack 40 [0 0 0 0] ------- [9:0 0:0 30 16] [1 0] 0 0
r 1.227326597 _8_ RTR  --- 15 tcp 41 [13a 8 b 800] ------- [0:0 9:0 28 8] [2 0] 3 0
f 1.227326597 _8_ RTR  --- 15 tcp 41 [13a 8 b 800] ------- [0:0 9:0 27 16] [2 0] 3 0
r 1.229300002 _16_ RTR  --- 15 tcp 41 [13a 10 8 800] ------- [0:0 9:0 27 16] [2 0] 4 0
f 1.229300002 _16_ RTR  --- 15 tcp 41 [13a 10 8 800] ------- [0:0 9:0 26 9] [2 0] 4 0
r 1.231174400 _9_ AGT  --- 15 tcp 41 [13a 9 10 800] ------- [0:0 9:0 26 9] [2 0] 5 0
s 1.231174400 _9_ AGT  --- 17 ack 40 [0 0 0 0] ------- [9:0 0:0 32 0] [2 0] 0 0
r 1.231174400 _9_ RTR  --- 17 ack 40 [0 0 0 0] ------- [9:0 0:0 32 0] [2 0] 0 0
s 1.231174400 _9_ RTR  --- 17 ack 40 [0 0 0 0] ------- [9:0 0:0 30 16] [2 0] 0 0
r 1.233960798 _16_ RTR  --- 16 ack 40 [13a 10 9 800] ------- [9:0 0:0 30 16] [1 0] 1 0
f 1.233960798 _16_ RTR  --- 16 ack 40 [13a 10 9 800] ------- [9:0 0:0 29 8] [1 0] 1 0
r 1.235927995 _16_ RTR  --- 17 ack 40 [13a 10 9 800] ------- [9:0 0:0 30 16] [2 0] 1 0
f 1.235927995 _16_ RTR  --- 17 ack 40 [13a 10 9 800] ------- [9:0 0:0 29 8] [2 0] 1 0
r 1.238213401 _8_ RTR  --- 16 ack 40 [13a 8 10 800] ------- [9:0 0:0 29 8] [1 0] 2 0
f 1.238213401 _8_ RTR  --- 16 ack 40 [13a 8 10 800] ------- [9:0 0:0 28 11] [1 0] 2 0
r 1.240419064 _11_ RTR  --- 16 ack 40 [13a b 8 800] ------- [9:0 0:0 28 11] [1 0] 3 0
f 1.240419064 _11_ RTR  --- 16 ack 40 [13a b 8 800] ------- [9:0 0:0 27 5] [1 0] 3 0
r 1.242244520 _5_ RTR  --- 16 ack 40 [13a 5 b 800] ------- [9:0 0:0 27 5] [1 0] 4 0
f 1.242244520 _5_ RTR  --- 16 ack 40 [13a 5 b 800] ------- [9:0 0:0 26 0] [1 0] 4 0
r 1.244070629 _0_ AGT  --- 16 ack 40 [13a 0 5 800] ------- [9:0 0:0 26 0] [1 0] 5 0
s 1.244070629 _0_ AGT  --- 18 tcp 41 [0 0 0 0] ------- [0:0 9:0 32 0] [3 0] 0 0
r 1.244070629 _0_ RTR  --- 18 tcp 41 [0 0 0 0] ------- [0:0 9:0 32 0] [3 0] 0 0
s 1.244070629 _0_ AGT  --- 19 tcp 41 [0 0 0 0] ------- [0:0 9:0 32 0] [4 0] 0 0
r 1.244070629 _0_ RTR  --- 19 tcp 41 [0 0 0 0] ------- [0:0 9:0 32 0] [4 0] 0 0
s 1.244070629 _0_ RTR  --- 18 tcp 41 [0 0 0 0] ------- [0:0 9:0 30 5] [3 0] 0 0
s 1.244070629 _0_ RTR  --- 19 tcp 41 [0 0 0 0] ------- [0:0 9:0 30 5] [4 0] 0 0
r 1.245944738 _5_ RTR  --- 18 tcp 41 [13a 5 0 800] ------- [0:0 9:0 30 5] [3 0] 1 0
f 1.245944738 _5_ RTR  --- 18 tcp 41 [13a 5 0 800] ------- [0:0 9:0 29 11] [3 0] 1 0
r 1.247978193 _11_ RTR  --- 18 tcp 41 [13a b 5 800] ------- [0:0 9:0 29 11] [3 0] 2 0
f 1.247978193 _11_ RTR  --- 18 tcp 41 [13a b 5 800] ------- [0:0 9:0 28 8] [3 0] 2 0
r 1.250011856 _8_ RTR  --- 18 tcp 41 [13a 8 b 800] ------- [0:0 9:0 28 8] [3 0] 3 0
f 1.250011856 _8_ RTR  --- 18 tcp 41 [13a 8 b 800] ------- [0:0 9:0 27 16] [3 0] 3 0
r 1.251905263 _16_ RTR  --- 18 tcp 41 [13a 10 8 800] ------- [0:0 9:0 27 16] [3 0] 4 0
f 1.251905263 _16_ RTR  --- 18 tcp 41 [13a 10 8 800] ------- [0:0 9:0 26 9] [3 0] 4 0
r 1.253770669 _8_ RTR  --- 17 ack 40 [13a 8 10 800] ------- [9:0 0:0 29 8] [2 0] 2 0
f 1.253770669 _8_ RTR  --- 17 ack 40 [13a 8 10 800] ------- [9:0 0:0 28 11] [2 0] 2 0
r 1.255636332 _11_ RTR  --- 17 ack 40 [13a b 8 800] ------- [9:0 0:0 28 11] [2 0] 3 0
f 1.255636332 _11_ RTR  --- 17 ack 40 [13a b 8 800] ------- [9:0 0:0 27 5] [2 0] 3 0
r 1.257601788 _5_ RTR  --- 17 ack 40 [13a 5 b 800] ------- [9:0 0:0 27 5] [2 0] 4 0
f 1.257601788 _5_ RTR  --- 17 ack 40 [13a 5 b 800] ------- [9:0 0:0 26 0] [2 0] 4 0
r 1.259487896 _0_ AGT  --- 17 ack 40 [13a 0 5 800] ------- [9:0 0:0 26 0] [2 0] 5 0
s 1.259487896 _0_ AGT  --- 20 tcp 41 [0 0 0 0] ------- [0:0 9:0 32 0] [5 0] 0 0
r 1.259487896 _0_ RTR  --- 20 tcp 41 [0 0 0 0] ------- [0:0 9:0 32 0] [5 0] 0 0
s 1.259487896 _0_ AGT  --- 21 tcp 41 [0 0 0 0] ------- [0:0 9:0 32 0] [6 0] 0 0
r 1.259487896 _0_ RTR  --- 21 tcp 41 [0 0 0 0] ------- [0:0 9:0 32 0] [6 0] 0 0
s 1.259487896 _0_ RTR  --- 20 tcp 41 [0 0 0 0] ------- [0:0 9:0 30 5] [5 0] 0 0
s 1.259487896 _0_ RTR  --- 21 tcp 41 [0 0 0 0] ------- [0:0 9:0 30 5] [6 0] 0 0
r 1.261522004 _5_ RTR  --- 19 tcp 41 [13a 5 0 800] ------- [0:0 9:0 30 5] [4 0] 1 0
f 1.261522004 _5_ RTR  --- 19 tcp 41 [13a 5 0 800] ------- [0:0 9:0 29 11] [4 0] 1 0
r 1.263615460 _11_ RTR  --- 19 tcp 41 [13a b 5 800] ------- [0:0 9:0 29 11] [4 0] 2 0
f 1.263615460 _11_ RTR  --- 19 tcp 41 [13a b 5 800] ------- [0:0 9:0 28 8] [4 0] 2 0
r 1.265854876 _9_ AGT  --- 18 tcp 41 [13a 9 10 800] ------- [0:0 9:0 26 9] [3 0] 5 0
s 1.265854876 _9_ AGT  --- 22 ack 40 [0 0 0 0] ------- [9:0 0:0 32 0] [3 0] 0 0
r 1.265854876 _9_ RTR  --- 22 ack 40 [0 0 0 0] ------- [9:0 0:0 32 0] [3 0] 0 0
s 1.265854876 _9_ RTR  --- 22 ack 40 [0 0 0 0] ------- [9:0 0:0 30 16] [3 0] 0 0
r 1.267839521 _5_ RTR  --- 20 tcp 41 [13a 5 0 800] ------- [0:0 9:0 30 5] [5 0] 1 0
f 1.267839521 _5_ RTR  --- 20 tcp 41 [13a 5 0 800] ------- [0:0 9:0 29 11] [5 0] 1 0
r 1.269903492 _8_ RTR  --- 19 tcp 41 [13a 8 b 800] ------- [0:0 9:0 28 8] [4 0] 3 0
f 1.269903492 _8_ RTR  --- 19 tcp 41 [13a 8 b 800] ------- [0:0 9:0 27 16] [4 0] 3 0
r 1.272162699 _5_ RTR  --- 21 tcp 41 [13a 5 0 800] ------- [0:0 9:0 30 5] [6 0] 1 0
f 1.272162699 _5_ RTR  --- 21 tcp 41 [13a 5 0 800] ------- [0:0 9:0 29 11] [6 0] 1 0
r 1.274316156 _11_ RTR  --- 20 tcp 41 [13a b 5 800] ------- [0:0 9:0 29 11] [5 0] 2 0
f 1.274316156 _11_ RTR  --- 20 tcp 41 [13a b 5 800] ------- [0:0 9:0 28 8] [5 0] 2 0
r 1.276270098 _11_ RTR  --- 21 tcp 41 [13a b 5 800] ------- [0:0 9:0 29 11] [6 0] 2 0
f 1.276270098 _11_ RTR  --- 21 tcp 41 [13a b 5 800] ------- [0:0 9:0 28 8] [6 0] 2 0
r 1.278400299 _8_ RTR  --- 20 tcp 41 [13a 8 b 800] ------- [0:0 9:0 28 8] [5 0] 3 0
f 1.278400299 _8_ RTR  --- 20 tcp 41 [13a 8 b 800] ------- [0:0 9:0 27 16] [5 0] 3 0
r 1.280293706 _16_ RTR  --- 19 tcp 41 [13a 10 8 800] ------- [0:0 9:0 27 16] [4 0] 4 0
f 1.280293706 _16_ RTR  --- 19 tcp 41 [13a 10 8 800] ------- [0:0 9:0 26 9] [4 0] 4 0
r 1.282547582 _16_ RTR  --- 20 tcp 41 [13a 10 8 800] ------- [0:0 9:0 27 16] [5 0] 4 0
f 1.282547582 _16_ RTR  --- 20 tcp 41 [13a 10 8 800] ------- [0:0 9:0 26 9] [5 0] 4 0
r 1.284521973 _9_ AGT  --- 19 tcp 41 [13a 9 10 800] ------- [0:0 9:0 26 9] [4 0] 5 0
s 1.284521973 _9_ AGT  --- 23 ack 40 [0 0 0 0] ------- [9:0 0:0 32 0] [4 0] 0 0
r 1.284521973 _9_ RTR  --- 23 ack 40 [0 0 0 0] ------- [9:0 0:0 32 0] [4 0] 0 0
s 1.284521973 _9_ RTR  --- 23 ack 40 [0 0 0 0] ------- [9:0 0:0 30 16] [4 0] 0 0
r 1.286537161 _9_ AGT  --- 20 tcp 41 [13a 9 10 800] ------- [0:0 9:0 26 9] [5 0] 5 0
s 1.286537161 _9_ AGT  --- 24 ack 40 [0 0 0 0] ------- [9:0 0:0 32 0] [5 0] 0 0
r 1.286537161 _9_ RTR  --- 24 ack 40 [0 0 0 0] ------- [9:0 0:0 32 0] [5 0] 0 0
s 1.286537161 _9_ RTR  --- 24 ack 40 [0 0 0 0] ------- [9:0 0:0 30 16] [5 0] 0 0
r 1.289182140 _13_ RTR  --- 10 tcp 41 [13a d 13 800] ------- [2:0 7:0 29 13] [4 0] 2 0
f 1.289182140 _13_ RTR  --- 10 tcp 41 [13a d 13 800] ------- [2:0 7:0 28 15] [4 0] 2 0
r 1.291035927 _15_ RTR  --- 10 tcp 41 [13a f d 800] ------- [2:0 7:0 28 15] [4 0] 3 0
f 1.291035927 _15_ RTR  --- 10 tcp 41 [13a f d 800] ------- [2:0 7:0 27 4] [4 0] 3 0
r 1.292910244 _4_ RTR  --- 10 tcp 41 [13a 4 f 800] ------- [2:0 7:0 27 4] [4 0] 4 0
f 1.292910244 _4_ RTR  --- 10 tcp 41 [13a 4 f 800] ------- [2:0 7:0 26 7] [4 0] 4 0
r 1.295166975 _2_ AGT  --- 11 ack 40 [13a 2 13 800] ------- [7:0 2:0 26 2] [2 0] 5 0
s 1.295166975 _2_ AGT  --- 25 tcp 41 [0 0 0 0] ------- [2:0 7:0 32 0] [5 0] 0 0
r 1.295166975 _2_ RTR  --- 25 tcp 41 [0 0 0 0] ------- [2:0 7:0 32 0] [5 0] 0 0
s 1.295166975 _2_ AGT  --- 26 tcp 41 [0 0 0 0] ------- [2:0 7:0 32 0] [6 0] 0 0
r 1.295166975 _2_ RTR  --- 26 tcp 41 [0 0 0 0] ------- [2:0 7:0 32 0] [6 0] 0 0
s 1.295166975 _2_ RTR  --- 25 tcp 41 [0 0 0 0] ------- [2:0 7:0 30 19] [5 0] 0 0
s 1.295166975 _2_ RTR  --- 26 tcp 41 [0 0 0 0] ------- [2:0 7:0 30 19] [6 0] 0 0
r 1.297021054 _8_ RTR  --- 21 tcp 41 [13a 8 b 800] ------- [0:0 9:0 28 8] [6 0] 3 0
f 1.297021054 _8_ RTR  --- 21 tcp 41 [13a 8 b 800] ------- [0:0 9:0 27 16] [6 0] 3 0
r 1.298895303 _19_ RTR  --- 25 tcp 41 [13a 13 2 800] ------- [2:0 7:0 30 19] [5 0] 1 0
f 1.298895303 _19_ RTR  --- 25 tcp 41 [13a 13 2 800] ------- [2:0 7:0 29 13] [5 0] 1 0
r 1.301632285 _16_ RTR  --- 22 ack 40 [13a 10 9 800] ------- [9:0 0:0 30 16] [3 0] 1 0
f 1.301632285 _16_ RTR  --- 22 ack 40 [13a 10 9 800] ------- [9:0 0:0 29 8] [3 0] 1 0
r 1.303696860 _19_ RTR  --- 26 tcp 41 [13a 13 2 800] ------- [2:0 7:0 30 19] [6 0] 1 0
f 1.303696860 _19_ RTR  --- 26 tcp 41 [13a 13 2 800] ------- [2:0 7:0 29 13] [6 0] 1 0
r 1.306699658 _8_ RTR  --- 22 ack 40 [13a 8 10 800] ------- [9:0 0:0 29 8] [3 0] 2 0
f 1.306699658 _8_ RTR  --- 22 ack 40 [13a 8 10 800] ------- [9:0 0:0 28 11] [3 0] 2 0
r 1.308733066 _16_ RTR  --- 21 tcp 41 [13a 10 8 800] ------- [0:0 9:0 27 16] [6 0] 4 0
f 1.308733066 _16_ RTR  --- 21 tcp 41 [13a 10 8 800] ------- [0:0 9:0 26 9] [6 0] 4 0
r 1.310959195 _11_ RTR  --- 22 ack 40 [13a b 8 800] ------- [9:0 0:0 28 11] [3 0] 3 0
f 1.310959195 _11_ RTR  --- 22 ack 40 [13a b 8 800] ------- [9:0 0:0 27 5] [3 0] 3 0
r 1.312804654 _5_ RTR  --- 22 ack 40 [13a 5 b 800] ------- [9:0 0:0 27 5] [3 0] 4 0
f 1.312804654 _5_ RTR  --- 22 ack 40 [13a 5 b 800] ------- [9:0 0:0 26 0] [3 0] 4 0
r 1.315964023 _0_ AGT  --- 22 ack 40 [13a 0 5 800] ------- [9:0 0:0 26 0] [3 0] 5 0
s 1.315964023 _0_ AGT  --- 27 tcp 41 [0 0 0 0] ------- [0:0 9:0 32 0] [7 0] 0 0
r 1.315964023 _0_ RTR  --- 27 tcp 41 [0 0 0 0] ------- [0:0 9:0 32 0] [7 0] 0 0
s 1.315964023 _0_ AGT  --- 28 tcp 41 [0 0 0 0] ------- [0:0 9:0 32 0] [8 0] 0 0
r 1.315964023 _0_ RTR  --- 28 tcp 41 [0 0 0 0] ------- [0:0 9:0 32 0] [8 0] 0 0
s 1.315964023 _0_ RTR  --- 27 tcp 41 [0 0 0 0] ------- [0:0 9:0 30 5] [7 0] 0 0
s 1.315964023 _0_ RTR  --- 28 tcp 41 [0 0 0 0] ------- [0:0 9:0 30 5] [8 0] 0 0
D 1.316261856 _4_ RTR  CBK 13 ack 40 [13a f 4 800] ------- [7:0 2:0 29 15] [3 0] 1 0
s 1.316261856 _4_ RTR  --- 0 AODV 48 [0 0 0 0] ------- [4:255 -1:255 1 0] [0x8 3 [0 2] 0.000000] (ERROR)
r 1.317958128 _5_ RTR  --- 27 tcp 41 [13a 5 0 800] ------- [0:0 9:0 30 5] [7 0] 1 0
f 1.317958128 _5_ RTR  --- 27 tcp 41 [13a 5 0 800] ------- [0:0 9:0 29 11] [7 0] 1 0
r 1.319792933 _5_ RTR  --- 28 tcp 41 [13a 5 0 800] ------- [0:0 9:0 30 5] [8 0] 1 0
f 1.319792933 _5_ RTR  --- 28 tcp 41 [13a 5 0 800] ------- [0:0 9:0 29 11] [8 0] 1 0
r 1.320521750 _7_ AGT  --- 10 tcp 41 [13a 7 4 800] ------- [2:0 7:0 26 7] [4 0] 5 0
s 1.320521750 _7_ AGT  --- 29 ack 40 [0 0 0 0] ------- [7:0 2:0 32 0] [4 0] 0 0
r 1.320521750 _7_ RTR  --- 29 ack 40 [0 0 0 0] ------- [7:0 2:0 32 0] [4 0] 0 0
s 1.320521750 _7_ RTR  --- 29 ack 40 [0 0 0 0] ------- [7:0 2:0 30 4] [4 0] 0 0
r 1.322074765 _6_ RTR  --- 0 AODV 48 [0 ffffffff 4 800] ------- [4:255 -1:255 1 0] [0x8 3 [0 2] 0.000000] (ERROR)
r 1.322075038 _7_ RTR  --- 0 AODV 48 [0 ffffffff 4 800] ------- [4:255 -1:255 1 0] [0x8 3 [0 2] 0.000000] (ERROR)
r 1.322075158 _12_ RTR  --- 0 AODV 48 [0 ffffffff 4 800] ------- [4:255 -1:255 1 0] [0x8 3 [0 2] 0.000000] (ERROR)
r 1.322075166 _15_ RTR  --- 0 AODV 48 [0 ffffffff 4 800] ------- [4:255 -1:255 1 0] [0x8 3 [0 2] 0.000000] (ERROR)
r 1.323766970 _4_ RTR  --- 29 ack 40 [13a 4 7 800] ------- [7:0 2:0 30 4] [4 0] 1 0
D 1.323766970 _4_ RTR NRTE 29 ack 40 [13a 4 7 800] ------- [7:0 2:0 29 4] [4 0] 1 0
s 1.323766970 _4_ RTR  --- 0 AODV 32 [0 0 0 0] ------- [4:255 -1:255 1 0] [0x8 1 [2 0] 0.000000] (ERROR)
r 1.325211341 _6_ RTR  --- 0 AODV 32 [0 ffffffff 4 800] ------- [4:255 -1:255 1 0] [0x8 1 [2 0] 0.000000] (ERROR)
r 1.325211614 _7_ RTR  --- 0 AODV 32 [0 ffffffff 4 800] ------- [4:255 -1:255 1 0] [0x8 1 [2 0] 0.000000] (ERROR)
r 1.325211734 _12_ RTR  --- 0 AODV 32 [0 ffffffff 4 800] ------- [4:255 -1:255 1 0] [0x8 1 [2 0] 0.000000] (ERROR)
r 1.325211742 _15_ RTR  --- 0 AODV 32 [0 ffffffff 4 800] ------- [4:255 -1:255 1 0] [0x8 1 [2 0] 0.000000] (ERROR)
r 1.327257153 _9_ AGT  --- 21 tcp 41 [13a 9 10 800] ------- [0:0 9:0 26 9] [6 0] 5 0
s 1.327257153 _9_ AGT  --- 30 ack 40 [0 0 0 0] ------- [9:0 0:0 32 0] [6 0] 0 0
r 1.327257153 _9_ RTR  --- 30 ack 40 [0 0 0 0] ------- [9:0 0:0 32 0] [6 0] 0 0
s 1.327257153 _9_ RTR  --- 30 ack 40 [0 0 0 0] ------- [9:0 0:0 30 16] [6 0] 0 0
r 1.329222133 _13_ RTR  --- 25 tcp 41 [13a d 13 800] ------- [2:0 7:0 29 13] [5 0] 2 0
f 1.329222133 _13_ RTR  --- 25 tcp 41 [13a d 13 800] ------- [2:0 7:0 28 15] [5 0] 2 0
r 1.331135920 _15_ RTR  --- 25 tcp 41 [13a f d 800] ------- [2:0 7:0 28 15] [5 0] 3 0
f 1.331135920 _15_ RTR  --- 25 tcp 41 [13a f d 800] ------- [2:0 7:0 27 4] [5 0] 3 0
r 1.333130236 _4_ RTR  --- 25 tcp 41 [13a 4 f 800] ------- [2:0 7:0 27 4] [5 0] 4 0
f 1.333130236 _4_ RTR  --- 25 tcp 41 [13a 4 f 800] ------- [2:0 7:0 26 7] [5 0] 4 0
r 1.335144168 _7_ AGT  --- 25 tcp 41 [13a 7 4 800] ------- [2:0 7:0 26 7] [5 0] 5 0
s 1.335144168 _7_ AGT  --- 31 ack 40 [0 0 0 0] ------- [7:0 2:0 32 0] [5 0] 0 0
r 1.335144168 _7_ RTR  --- 31 ack 40 [0 0 0 0] ------- [7:0 2:0 32 0] [5 0] 0 0
s 1.335144168 _7_ RTR  --- 0 AODV 48 [0 0 0 0] ------- [7:255 -1:255 7 0] [0x2 1 1 [2 5] [7 6]] (REQUEST)
r 1.336436765 _12_ RTR  --- 0 AODV 48 [0 ffffffff 7 800] ------- [7:255 -1:255 7 0] [0x2 1 1 [2 5] [7 6]] (REQUEST)
r 1.336436812 _4_ RTR  --- 0 AODV 48 [0 ffffffff 7 800] ------- [7:255 -1:255 7 0] [0x2 1 1 [2 5] [7 6]] (REQUEST)
r 1.339155358 _13_ RTR  --- 26 tcp 41 [13a d 13 800] ------- [2:0 7:0 29 13] [6 0] 2 0
f 1.339155358 _13_ RTR  --- 26 tcp 41 [13a d 13 800] ------- [2:0 7:0 28 15] [6 0] 2 0
r 1.341089144 _15_ RTR  --- 26 tcp 41 [13a f d 800] ------- [2:0 7:0 28 15] [6 0] 3 0
f 1.341089144 _15_ RTR  --- 26 tcp 41 [13a f d 800] ------- [2:0 7:0 27 4] [6 0] 3 0
r 1.343363460 _4_ RTR  --- 26 tcp 41 [13a 4 f 800] ------- [2:0 7:0 27 4] [6 0] 4 0
f 1.343363460 _4_ RTR  --- 26 tcp 41 [13a 4 f 800] ------- [2:0 7:0 26 7] [6 0] 4 0
s 1.344663202 _4_ RTR  --- 0 AODV 48 [0 ffffffff 7 800] ------- [4:255 -1:255 6 0] [0x2 2 1 [2 5] [7 6]] (REQUEST)
s 1.345427886 _12_ RTR  --- 0 AODV 48 [0 ffffffff 7 800] ------- [12:255 -1:255 6 0] [0x2 2 1 [2 5] [7 6]] (REQUEST)
r 1.345797392 _7_ AGT  --- 26 tcp 41 [13a 7 4 800] ------- [2:0 7:0 26 7] [6 0] 5 0
s 1.345797392 _7_ AGT  --- 32 ack 40 [0 0 0 0] ------- [7:0 2:0 32 0] [6 0] 0 0
r 1.345797392 _7_ RTR  --- 32 ack 40 [0 0 0 0] ------- [7:0 2:0 32 0] [6 0] 0 0
r 1.347270407 _6_ RTR  --- 0 AODV 48 [0 ffffffff 4 800] ------- [4:255 -1:255 6 0] [0x2 2 1 [2 5] [7 6]] (REQUEST)
r 1.347270680 _7_ RTR  --- 0 AODV 48 [0 ffffffff 4 800] ------- [4:255 -1:255 6 0] [0x2 2 1 [2 5] [7 6]] (REQUEST)
r 1.347270800 _12_ RTR  --- 0 AODV 48 [0 ffffffff 4 800] ------- [4:255 -1:255 6 0] [0x2 2 1 [2 5] [7 6]] (REQUEST)
r 1.347270808 _15_ RTR  --- 0 AODV 48 [0 ffffffff 4 800] ------- [4:255 -1:255 6 0] [0x2 2 1 [2 5] [7 6]] (REQUEST)
s 1.347870539 _6_ RTR  --- 0 AODV 48 [0 ffffffff 4 800] ------- [6:255 -1:255 5 0] [0x2 3 1 [2 5] [7 6]] (REQUEST)
r 1.348409397 _7_ RTR  --- 0 AODV 48 [0 ffffffff c 800] ------- [12:255 -1:255 6 0] [0x2 2 1 [2 5] [7 6]] (REQUEST)
r 1.348409564 _4_ RTR  --- 0 AODV 48 [0 ffffffff c 800] ------- [12:255 -1:255 6 0] [0x2 2 1 [2 5] [7 6]] (REQUEST)
r 1.349812274 _4_ RTR  --- 0 AODV 48 [0 ffffffff 6 800] ------- [6:255 -1:255 5 0] [0x2 3 1 [2 5] [7 6]] (REQUEST)
r 1.349812588 _15_ RTR  --- 0 AODV 48 [0 ffffffff 6 800] ------- [6:255 -1:255 5 0] [0x2 3 1 [2 5] [7 6]] (REQUEST)
s 1.352315149 _15_ RTR  --- 0 AODV 48 [0 ffffffff 4 800] ------- [15:255 -1:255 5 0] [0x2 3 1 [2 5] [7 6]] (REQUEST)
r 1.354134726 _13_ RTR  --- 0 AODV 48 [0 ffffffff f 800] ------- [15:255 -1:255 5 0] [0x2 3 1 [2 5] [7 6]] (REQUEST)
r 1.354134815 _6_ RTR  --- 0 AODV 48 [0 ffffffff f 800] ------- [15:255 -1:255 5 0] [0x2 3 1 [2 5] [7 6]] (REQUEST)
r 1.354134902 _4_ RTR  --- 0 AODV 48 [0 ffffffff f 800] ------- [15:255 -1:255 5 0] [0x2 3 1 [2 5] [7 6]] (REQUEST)
r 1.356052139 _16_ RTR  --- 23 ack 40 [13a 10 9 800] ------- [9:0 0:0 30 16] [4 0] 1 0
f 1.356052139 _16_ RTR  --- 23 ack 40 [13a 10 9 800] ------- [9:0 0:0 29 8] [4 0] 1 0
r 1.357917548 _8_ RTR  --- 23 ack 40 [13a 8 10 800] ------- [9:0 0:0 29 8] [4 0] 2 0
f 1.357917548 _8_ RTR  --- 23 ack 40 [13a 8 10 800] ------- [9:0 0:0 28 11] [4 0] 2 0
r 1.359866502 _3_ RTR  --- 0 AODV 44 [13a 3 b 800] ------- [6:255 3:255 27 3] [0x4 4 [6 4] 10.000000] (REPLY)
s 1.359866502 _3_ RTR  --- 3 tcp 40 [0 0 0 0] ------- [3:0 6:0 30 11] [0 0] 0 0
s 1.362394936 _13_ RTR  --- 0 AODV 48 [0 ffffffff f 800] ------- [13:255 -1:255 4 0] [0x2 4 1 [2 5] [7 6]] (REQUEST)
r 1.363390095 _11_ RTR  --- 23 ack 40 [13a b 8 800] ------- [9:0 0:0 28 11] [4 0] 3 0
f 1.363390095 _11_ RTR  --- 23 ack 40 [13a b 8 800] ------- [9:0 0:0 27 5] [4 0] 3 0
r 1.365387027 _11_ RTR  --- 3 tcp 40 [13a b 3 800] ------- [3:0 6:0 30 11] [0 0] 1 0
f 1.365387027 _11_ RTR  --- 3 tcp 40 [13a b 3 800] ------- [3:0 6:0 29 13] [0 0] 1 0
r 1.366770101 _11_ RTR  --- 0 AODV 48 [0 ffffffff d 800] ------- [13:255 -1:255 4 0] [0x2 4 1 [2 5] [7 6]] (REQUEST)
r 1.366770135 _15_ RTR  --- 0 AODV 48 [0 ffffffff d 800] ------- [13:255 -1:255 4 0] [0x2 4 1 [2 5] [7 6]] (REQUEST)
r 1.366770365 _19_ RTR  --- 0 AODV 48 [0 ffffffff d 800] ------- [13:255 -1:255 4 0] [0x2 4 1 [2 5] [7 6]] (REQUEST)
r 1.368421563 _5_ RTR  --- 23 ack 40 [13a 5 b 800] ------- [9:0 0:0 27 5] [4 0] 4 0
f 1.368421563 _5_ RTR  --- 23 ack 40 [13a 5 b 800] ------- [9:0 0:0 26 0] [4 0] 4 0
s 1.369857012 _11_ RTR  --- 0 AODV 48 [0 ffffffff d 800] ------- [11:255 -1:255 3 0] [0x2 5 1 [2 5] [7 6]] (REQUEST)
r 1.370559069 _16_ RTR  --- 24 ack 40 [13a 10 9 800] ------- [9:0 0:0 30 16] [5 0] 1 0
f 1.370559069 _16_ RTR  --- 24 ack 40 [13a 10 9 800] ------- [9:0 0:0 29 8] [5 0] 1 0
s 1.370581641 _19_ RTR  --- 0 AODV 48 [0 ffffffff d 800] ------- [19:255 -1:255 3 0] [0x2 5 1 [2 5] [7 6]] (REQUEST)
r 1.372724479 _8_ RTR  --- 24 ack 40 [13a 8 10 800] ------- [9:0 0:0 29 8] [5 0] 2 0
f 1.372724479 _8_ RTR  --- 24 ack 40 [13a 8 10 800] ------- [9:0 0:0 28 11] [5 0] 2 0
r 1.374820714 _13_ RTR  --- 3 tcp 40 [13a d b 800] ------- [3:0 6:0 29 13] [0 0] 2 0
f 1.374820714 _13_ RTR  --- 3 tcp 40 [13a d b 800] ------- [3:0 6:0 28 15] [0 0] 2 0
r 1.376666500 _15_ RTR  --- 3 tcp 40 [13a f d 800] ------- [3:0 6:0 28 15] [0 0] 3 0
f 1.376666500 _15_ RTR  --- 3 tcp 40 [13a f d 800] ------- [3:0 6:0 27 6] [0 0] 3 0
r 1.382126294 _6_ AGT  --- 3 tcp 40 [13a 6 f 800] ------- [3:0 6:0 27 6] [0 0] 4 0
s 1.382126294 _6_ AGT  --- 33 ack 40 [0 0 0 0] ------- [6:0 3:0 32 0] [0 0] 0 0
r 1.382126294 _6_ RTR  --- 33 ack 40 [0 0 0 0] ------- [6:0 3:0 32 0] [0 0] 0 0
s 1.382126294 _6_ RTR  --- 33 ack 40 [0 0 0 0] ------- [6:0 3:0 30 15] [0 0] 0 0
r 1.383429157 _5_ RTR  --- 0 AODV 48 [0 ffffffff 13 800] ------- [19:255 -1:255 3 0] [0x2 5 1 [2 5] [7 6]] (REQUEST)
r 1.383429186 _17_ RTR  --- 0 AODV 48 [0 ffffffff 13 800] ------- [19:255 -1:255 3 0] [0x2 5 1 [2 5] [7 6]] (REQUEST)
r 1.383429408 _11_ RTR  --- 0 AODV 48 [0 ffffffff 13 800] ------- [19:255 -1:255 3 0] [0x2 5 1 [2 5] [7 6]] (REQUEST)
r 1.383429523 _3_ RTR  --- 0 AODV 48 [0 ffffffff 13 800] ------- [19:255 -1:255 3 0] [0x2 5 1 [2 5] [7 6]] (REQUEST)
r 1.383429721 _2_ RTR  --- 0 AODV 48 [0 ffffffff 13 800] ------- [19:255 -1:255 3 0] [0x2 5 1 [2 5] [7 6]] (REQUEST)
s 1.383429721 _2_ RTR  --- 0 AODV 44 [0 0 0 0] ------- [2:255 7:255 30 19] [0x4 1 [2 6] 10.000000] (REPLY)
r 1.383429730 _18_ RTR  --- 0 AODV 48 [0 ffffffff 13 800] ------- [19:255 -1:255 3 0] [0x2 5 1 [2 5] [7 6]] (REQUEST)
r 1.383429836 _0_ RTR  --- 0 AODV 48 [0 ffffffff 13 800] ------- [19:255 -1:255 3 0] [0x2 5 1 [2 5] [7 6]] (REQUEST)
s 1.383467726 _5_ RTR  --- 0 AODV 48 [0 ffffffff 13 800] ------- [5:255 -1:255 2 0] [0x2 6 1 [2 5] [7 6]] (REQUEST)
s 1.384200054 _3_ RTR  --- 0 AODV 48 [0 ffffffff 13 800] ------- [3:255 -1:255 2 0] [0x2 6 1 [2 5] [7 6]] (REQUEST)
s 1.385298231 _18_ RTR  --- 0 AODV 48 [0 ffffffff 13 800] ------- [18:255 -1:255 2 0] [0x2 6 1 [2 5] [7 6]] (REQUEST)
r 1.385363800 _19_ RTR  --- 0 AODV 44 [13a 13 2 800] ------- [2:255 7:255 30 19] [0x4 1 [2 6] 10.000000] (REPLY)
f 1.385363800 _19_ RTR  --- 0 AODV 44 [13a 13 2 800] ------- [2:255 7:255 29 13] [0x4 2 [2 6] 10.000000] (REPLY)
r 1.387260770 _16_ RTR  --- 30 ack 40 [13a 10 9 800] ------- [9:0 0:0 30 16] [6 0] 1 0
f 1.387260770 _16_ RTR  --- 30 ack 40 [13a 10 9 800] ------- [9:0 0:0 29 8] [6 0] 1 0
r 1.387788970 _17_ RTR  --- 0 AODV 48 [0 ffffffff 3 800] ------- [3:255 -1:255 2 0] [0x2 6 1 [2 5] [7 6]] (REQUEST)
r 1.387788989 _5_ RTR  --- 0 AODV 48 [0 ffffffff 3 800] ------- [3:255 -1:255 2 0] [0x2 6 1 [2 5] [7 6]] (REQUEST)
r 1.387789008 _0_ RTR  --- 0 AODV 48 [0 ffffffff 3 800] ------- [3:255 -1:255 2 0] [0x2 6 1 [2 5] [7 6]] (REQUEST)
r 1.387789115 _19_ RTR  --- 0 AODV 48 [0 ffffffff 3 800] ------- [3:255 -1:255 2 0] [0x2 6 1 [2 5] [7 6]] (REQUEST)
s 1.388267716 _0_ RTR  --- 0 AODV 48 [0 ffffffff 13 800] ------- [0:255 -1:255 2 0] [0x2 6 1 [2 5] [7 6]] (REQUEST)
s 1.388798743 _17_ RTR  --- 0 AODV 48 [0 ffffffff 13 800] ------- [17:255 -1:255 2 0] [0x2 6 1 [2 5] [7 6]] (REQUEST)
r 1.389524546 _13_ RTR  --- 0 AODV 44 [13a d 13 800] ------- [2:255 7:255 29 13] [0x4 2 [2 6] 10.000000] (REPLY)
f 1.389524546 _13_ RTR  --- 0 AODV 44 [13a d 13 800] ------- [2:255 7:255 28 15] [0x4 3 [2 6] 10.000000] (REPLY)
r 1.391462331 _15_ RTR  --- 0 AODV 44 [13a f d 800] ------- [2:255 7:255 28 15] [0x4 3 [2 6] 10.000000] (REPLY)
f 1.391462331 _15_ RTR  --- 0 AODV 44 [13a f d 800] ------- [2:255 7:255 27 4] [0x4 4 [2 6] 10.000000] (REPLY)
r 1.393165689 _3_ RTR  --- 0 AODV 48 [0 ffffffff 0 800] ------- [0:255 -1:255 2 0] [0x2 6 1 [2 5] [7 6]] (REQUEST)
r 1.393620645 _4_ RTR  --- 0 AODV 44 [13a 4 f 800] ------- [2:255 7:255 27 4] [0x4 4 [2 6] 10.000000] (REPLY)
f 1.393620645 _4_ RTR  --- 0 AODV 44 [13a 4 f 800] ------- [2:255 7:255 26 7] [0x4 5 [2 6] 10.000000] (REPLY)
r 1.395063505 _5_ RTR  --- 0 AODV 48 [0 ffffffff 11 800] ------- [17:255 -1:255 2 0] [0x2 6 1 [2 5] [7 6]] (REQUEST)
r 1.395063585 _19_ RTR  --- 0 AODV 48 [0 ffffffff 11 800] ------- [17:255 -1:255 2 0] [0x2 6 1 [2 5] [7 6]] (REQUEST)
r 1.395063776 _3_ RTR  --- 0 AODV 48 [0 ffffffff 11 800] ------- [17:255 -1:255 2 0] [0x2 6 1 [2 5] [7 6]] (REQUEST)
r 1.395063891 _11_ RTR  --- 0 AODV 48 [0 ffffffff 11 800] ------- [17:255 -1:255 2 0] [0x2 6 1 [2 5] [7 6]] (REQUEST)
r 1.395064076 _0_ RTR  --- 0 AODV 48 [0 ffffffff 11 800] ------- [17:255 -1:255 2 0] [0x2 6 1 [2 5] [7 6]] (REQUEST)
r 1.395064114 _18_ RTR  --- 0 AODV 48 [0 ffffffff 11 800] ------- [17:255 -1:255 2 0] [0x2 6 1 [2 5] [7 6]] (REQUEST)
r 1.395064114 _2_ RTR  --- 0 AODV 48 [0 ffffffff 11 800] ------- [17:255 -1:255 2 0] [0x2 6 1 [2 5] [7 6]] (REQUEST)
r 1.395878577 _7_ RTR  --- 0 AODV 44 [13a 7 4 800] ------- [2:255 7:255 26 7] [0x4 5 [2 6] 10.000000] (REPLY)
s 1.395878577 _7_ RTR  --- 31 ack 40 [0 0 0 0] ------- [7:0 2:0 30 4] [5 0] 0 0
r 1.398004509 _4_ RTR  --- 31 ack 40 [13a 4 7 800] ------- [7:0 2:0 30 4] [5 0] 1 0
f 1.398004509 _4_ RTR  --- 31 ack 40 [13a 4 7 800] ------- [7:0 2:0 29 15] [5 0] 1 0
r 1.400130823 _15_ RTR  --- 31 ack 40 [13a f 4 800] ------- [7:0 2:0 29 15] [5 0] 2 0
f 1.400130823 _15_ RTR  --- 31 ack 40 [13a f 4 800] ------- [7:0 2:0 28 13] [5 0] 2 0
r 1.401977563 _15_ RTR  --- 33 ack 40 [13a f 6 800] ------- [6:0 3:0 30 15] [0 0] 1 0
f 1.401977563 _15_ RTR  --- 33 ack 40 [13a f 6 800] ------- [6:0 3:0 29 13] [0 0] 1 0
r 1.402485561 _2_ RTR  --- 0 AODV 48 [0 ffffffff 12 800] ------- [18:255 -1:255 2 0] [0x2 6 1 [2 5] [7 6]] (REQUEST)
r 1.402485690 _8_ RTR  --- 0 AODV 48 [0 ffffffff 12 800] ------- [18:255 -1:255 2 0] [0x2 6 1 [2 5] [7 6]] (REQUEST)
r 1.402486120 _16_ RTR  --- 0 AODV 48 [0 ffffffff 12 800] ------- [18:255 -1:255 2 0] [0x2 6 1 [2 5] [7 6]] (REQUEST)
r 1.402486208 _17_ RTR  --- 0 AODV 48 [0 ffffffff 12 800] ------- [18:255 -1:255 2 0] [0x2 6 1 [2 5] [7 6]] (REQUEST)
r 1.402486222 _19_ RTR  --- 0 AODV 48 [0 ffffffff 12 800] ------- [18:255 -1:255 2 0] [0x2 6 1 [2 5] [7 6]] (REQUEST)
r 1.402486271 _5_ RTR  --- 0 AODV 48 [0 ffffffff 12 800] ------- [18:255 -1:255 2 0] [0x2 6 1 [2 5] [7 6]] (REQUEST)
r 1.402486290 _10_ RTR  --- 0 AODV 48 [0 ffffffff 12 800] ------- [18:255 -1:255 2 0] [0x2 6 1 [2 5] [7 6]] (REQUEST)
s 1.402967510 _8_ RTR  --- 0 AODV 48 [0 ffffffff 12 800] ------- [8:255 -1:255 1 0] [0x2 7 1 [2 5] [7 6]] (REQUEST)
r 1.404248543 _8_ RTR  --- 30 ack 40 [13a 8 10 800] ------- [9:0 0:0 29 8] [6 0] 2 0
f 1.404248543 _8_ RTR  --- 30 ack 40 [13a 8 10 800] ------- [9:0 0:0 28 11] [6 0] 2 0
s 1.404407751 _16_ RTR  --- 0 AODV 48 [0 ffffffff 12 800] ------- [16:255 -1:255 1 0] [0x2 7 1 [2 5] [7 6]] (REQUEST)
r 1.405591474 _19_ RTR  --- 0 AODV 48 [0 ffffffff b 800] ------- [11:255 -1:255 3 0] [0x2 5 1 [2 5] [7 6]] (REQUEST)
r 1.405591511 _2_ RTR  --- 0 AODV 48 [0 ffffffff b 800] ------- [11:255 -1:255 3 0] [0x2 5 1 [2 5] [7 6]] (REQUEST)
r 1.405591538 _18_ RTR  --- 0 AODV 48 [0 ffffffff b 800] ------- [11:255 -1:255 3 0] [0x2 5 1 [2 5] [7 6]] (REQUEST)
r 1.405591559 _17_ RTR  --- 0 AODV 48 [0 ffffffff b 800] ------- [11:255 -1:255 3 0] [0x2 5 1 [2 5] [7 6]] (REQUEST)
r 1.405591582 _5_ RTR  --- 0 AODV 48 [0 ffffffff b 800] ------- [11:255 -1:255 3 0] [0x2 5 1 [2 5] [7 6]] (REQUEST)
r 1.405591646 _8_ RTR  --- 0 AODV 48 [0 ffffffff b 800] ------- [11:255 -1:255 3 0] [0x2 5 1 [2 5] [7 6]] (REQUEST)
r 1.405591655 _13_ RTR  --- 0 AODV 48 [0 ffffffff b 800] ------- [11:255 -1:255 3 0] [0x2 5 1 [2 5] [7 6]] (REQUEST)
r 1.405591895 _3_ RTR  --- 0 AODV 48 [0 ffffffff b 800] ------- [11:255 -1:255 3 0] [0x2 5 1 [2 5] [7 6]] (REQUEST)
s 1.405878577 _7_ RTR  --- 32 ack 40 [0 0 0 0] ------- [7:0 2:0 30 4] [6 0] 0 0
r 1.406914376 _10_ RTR  --- 0 AODV 48 [0 ffffffff 10 800] ------- [16:255 -1:255 1 0] [0x2 7 1 [2 5] [7 6]] (REQUEST)
r 1.406914586 _8_ RTR  --- 0 AODV 48 [0 ffffffff 10 800] ------- [16:255 -1:255 1 0] [0x2 7 1 [2 5] [7 6]] (REQUEST)
r 1.406914715 _18_ RTR  --- 0 AODV 48 [0 ffffffff 10 800] ------- [16:255 -1:255 1 0] [0x2 7 1 [2 5] [7 6]] (REQUEST)
r 1.406914730 _2_ RTR  --- 0 AODV 48 [0 ffffffff 10 800] ------- [16:255 -1:255 1 0] [0x2 7 1 [2 5] [7 6]] (REQUEST)
r 1.406914907 _9_ RTR  --- 0 AODV 48 [0 ffffffff 10 800] ------- [16:255 -1:255 1 0] [0x2 7 1 [2 5] [7 6]] (REQUEST)
D 1.406914907 _9_ RTR  TTL 0 AODV 48 [0 ffffffff 10 800] ------- [9:255 -1:255 0 0] [0x2 8 1 [2 5] [7 6]] (REQUEST)
r 1.408526240 _11_ RTR  --- 24 ack 40 [13a b 8 800] ------- [9:0 0:0 28 11] [5 0] 3 0
f 1.408526240 _11_ RTR  --- 24 ack 40 [13a b 8 800] ------- [9:0 0:0 27 5] [5 0] 3 0
s 1.410429724 _10_ RTR  --- 0 AODV 48 [0 ffffffff 12 800] ------- [10:255 -1:255 1 0] [0x2 7 1 [2 5] [7 6]] (REQUEST)
r 1.410471704 _5_ RTR  --- 24 ack 40 [13a 5 b 800] ------- [9:0 0:0 27 5] [5 0] 4 0
f 1.410471704 _5_ RTR  --- 24 ack 40 [13a 5 b 800] ------- [9:0 0:0 26 0] [5 0] 4 0
r 1.412088780 _2_ RTR  --- 0 AODV 48 [0 ffffffff 8 800] ------- [8:255 -1:255 1 0] [0x2 7 1 [2 5] [7 6]] (REQUEST)
r 1.412088786 _18_ RTR  --- 0 AODV 48 [0 ffffffff 8 800] ------- [8:255 -1:255 1 0] [0x2 7 1 [2 5] [7 6]] (REQUEST)
r 1.412089086 _16_ RTR  --- 0 AODV 48 [0 ffffffff 8 800] ------- [8:255 -1:255 1 0] [0x2 7 1 [2 5] [7 6]] (REQUEST)
r 1.412089168 _11_ RTR  --- 0 AODV 48 [0 ffffffff 8 800] ------- [8:255 -1:255 1 0] [0x2 7 1 [2 5] [7 6]] (REQUEST)
r 1.412089293 _10_ RTR  --- 0 AODV 48 [0 ffffffff 8 800] ------- [8:255 -1:255 1 0] [0x2 7 1 [2 5] [7 6]] (REQUEST)
r 1.413820270 _11_ RTR  --- 30 ack 40 [13a b 8 800] ------- [9:0 0:0 28 11] [6 0] 3 0
f 1.413820270 _11_ RTR  --- 30 ack 40 [13a b 8 800] ------- [9:0 0:0 27 5] [6 0] 3 0
r 1.415765734 _5_ RTR  --- 30 ack 40 [13a 5 b 800] ------- [9:0 0:0 27 5] [6 0] 4 0
f 1.415765734 _5_ RTR  --- 30 ack 40 [13a 5 b 800] ------- [9:0 0:0 26 0] [6 0] 4 0
r 1.417842830 _4_ RTR  --- 32 ack 40 [13a 4 7 800] ------- [7:0 2:0 30 4] [6 0] 1 0
f 1.417842830 _4_ RTR  --- 32 ack 40 [13a 4 7 800] ------- [7:0 2:0 29 15] [6 0] 1 0
r 1.419185995 _16_ RTR  --- 0 AODV 48 [0 ffffffff a 800] ------- [10:255 -1:255 1 0] [0x2 7 1 [2 5] [7 6]] (REQUEST)
r 1.419186411 _8_ RTR  --- 0 AODV 48 [0 ffffffff a 800] ------- [10:255 -1:255 1 0] [0x2 7 1 [2 5] [7 6]] (REQUEST)
r 1.419186504 _18_ RTR  --- 0 AODV 48 [0 ffffffff a 800] ------- [10:255 -1:255 1 0] [0x2 7 1 [2 5] [7 6]] (REQUEST)
r 1.419186529 _2_ RTR  --- 0 AODV 48 [0 ffffffff a 800] ------- [10:255 -1:255 1 0] [0x2 7 1 [2 5] [7 6]] (REQUEST)
r 1.421069143 _15_ RTR  --- 32 ack 40 [13a f 4 800] ------- [7:0 2:0 29 15] [6 0] 2 0
f 1.421069143 _15_ RTR  --- 32 ack 40 [13a f 4 800] ------- [7:0 2:0 28 13] [6 0] 2 0
r 1.423154928 _13_ RTR  --- 31 ack 40 [13a d f 800] ------- [7:0 2:0 28 13] [5 0] 3 0