n -t * -s 0  -x 135 -y 581 -Z 0 -z 25  -v circle -c black
n -t * -s 1  -x 918 -y 976 -Z 0 -z 25  -v circle -c black
n -t * -s 2  -x 716 -y 885 -Z 0 -z 25  -v circle -c black
n -t * -s 3  -x 798 -y 674 -Z 0 -z 25  -v circle -c black
n -t * -s 4  -x 537 -y 895 -Z 0 -z 25  -v circle -c black
n -t * -s 5  -x 973 -y 97 -Z 0 -z 25  -v circle -c black
n -t * -s 6  -x 378 -y 752 -Z 0 -z 25  -v circle -c black
n -t * -s 7  -x 670 -y 956 -Z 0 -z 25  -v circle -c black
n -t * -s 8  -x 796 -y 435 -Z 0 -z 25  -v circle -c black
n -t * -s 9  -x 454 -y 319 -Z 0 -z 25  -v circle -c black
n -t * -s 10  -x 209 -y 720 -Z 0 -z 25  -v circle -c black
n -t * -s 11  -x 518 -y 543 -Z 0 -z 25  -v circle -c black
n -t * -s 12  -x 480 -y 764 -Z 0 -z 25  -v circle -c black
n -t * -s 13  -x 688 -y 796 -Z 0 -z 25  -v circle -c black
n -t * -s 14  -x 773 -y 648 -Z 0 -z 25  -v circle -c black
V -t * -v 1.0a5 -a 0
W -t * -x 1000 -y 1000
A -t * -n 1 -p 0 -o 0x7fffffff -c 30 -a 1
A -t * -h 1 -m 1073741823 -s 0
n -t 1.000000 -s 0 -x 135.000000 -y 581.000000 -U 4.713575 -V -1.667995 -T 134.292963
n -t 1.000000 -s 1 -x 918.000000 -y 976.000000 -U -4.774776 -V -1.483750 -T 179.275431
n -t 1.000000 -s 2 -x 716.000000 -y 885.000000 -U -6.217346 -V -6.507274 -T 62.084371
n -t 1.000000 -s 3 -x 798.000000 -y 674.000000 -U -1.961161 -V 0.392232 -T 132.574507
n -t 1.000000 -s 4 -x 537.000000 -y 895.000000 -U -4.626431 -V -6.526572 -T 108.939275
n -t 1.000000 -s 5 -x 973.000000 -y 97.000000 -U -6.808424 -V 1.626457 -T 52.875672
n -t 1.000000 -s 6 -x 378.000000 -y 752.000000 -U 5.373991 -V -8.433281 -T 61.779042
n -t 1.000000 -s 7 -x 670.000000 -y 956.000000 -U 8.848170 -V -1.646171 -T 14.579285
n -t 1.000000 -s 8 -x 796.000000 -y 435.000000 -U 0.492320 -V 2.959328 -T 184.839270
n -t 1.000000 -s 9 -x 454.000000 -y 319.000000 -U -0.999552 -V -0.029927 -T 167.074834
n -t 1.000000 -s 10 -x 209.000000 -y 720.000000 -U 5.997988 -V 0.155388 -T 64.354919
n -t 1.000000 -s 11 -x 518.000000 -y 543.000000 -U 5.157439 -V -7.375692 -T 72.128829
n -t 1.000000 -s 12 -x 480.000000 -y 764.000000 -U -0.682536 -V -8.974082 -T 79.116729
n -t 1.000000 -s 13 -x 688.000000 -y 796.000000 -U -7.270465 -V 5.304747 -T 37.136551
n -t 1.000000 -s 14 -x 773.000000 -y 648.000000 -U -5.991139 -V -0.325972 -T 88.964725
+ -t 1.000000000 -s 0 -d -1 -p tcp -e 40 -c 2 -a 0 -i 0 -k AGT 
- -t 1.000000000 -s 0 -d -1 -p tcp -e 40 -c 2 -a 0 -i 0 -k AGT
h -t 1.000000000 -s 0 -d -1 -p tcp -e 40 -c 2 -a 0 -i 0 -k AGT
+ -t 1.000000000 -s 0 -d -1 -p AODV -e 48 -c 2 -a 0 -i 0 -k RTR 
- -t 1.000000000 -s 0 -d -1 -p AODV -e 48 -c 2 -a 0 -i 0 -k RTR
h -t 1.000000000 -s 0 -d -1 -p AODV -e 48 -c 2 -a 0 -i 0 -k RTR
r -t 1.000988525 -s 10 -d -1 -p AODV -e 48 -c 2 -a 0 -i 0 -k RTR
+ -t 1.001869752 -s 10 -d -1 -p AODV -e 48 -c 2 -a 0 -i 0 -k RTR 
- -t 1.001869752 -s 10 -d -1 -p AODV -e 48 -c 2 -a 0 -i 0 -k RTR
h -t 1.001869752 -s 10 -d -1 -p AODV -e 48 -c 2 -a 0 -i 0 -k RTR
r -t 1.003138277 -s 0 -d -1 -p AODV -e 48 -c 2 -a 0 -i 0 -k RTR
r -t 1.003138325 -s 6 -d -1 -p AODV -e 48 -c 2 -a 0 -i 0 -k RTR
+ -t 1.006267943 -s 6 -d -1 -p AODV -e 48 -c 2 -a 0 -i 0 -k RTR 
- -t 1.006267943 -s 6 -d -1 -p AODV -e 48 -c 2 -a 0 -i 0 -k RTR
h -t 1.006267943 -s 6 -d -1 -p AODV -e 48 -c 2 -a 0 -i 0 -k RTR
r -t 1.007416285 -s 12 -d -1 -p AODV -e 48 -c 2 -a 0 -i 0 -k RTR
r -t 1.007416516 -s 10 -d -1 -p AODV -e 48 -c 2 -a 0 -i 0 -k RTR
r -t 1.007416655 -s 4 -d -1 -p AODV -e 48 -c 2 -a 0 -i 0 -k RTR
+ -t 1.007416655 -s 4 -d 6 -p AODV -e 44 -c 2 -a 0 -i 0 -k RTR 
- -t 1.007416655 -s 4 -d 6 -p AODV -e 44 -c 2 -a 0 -i 0 -k RTR
h -t 1.007416655 -s 4 -d 6 -p AODV -e 44 -c 2 -a 0 -i 0 -k RTR
+ -t 1.011964644 -s 6 -d 10 -p AODV -e 44 -c 2 -a 0 -i 0 -k RTR 
- -t 1.011964644 -s 6 -d 10 -p AODV -e 44 -c 2 -a 0 -i 0 -k RTR
h -t 1.011964644 -s 6 -d 10 -p AODV -e 44 -c 2 -a 0 -i 0 -k RTR
+ -t 1.013804936 -s 12 -d -1 -p AODV -e 48 -c 2 -a 0 -i 0 -k RTR 
- -t 1.013804936 -s 12 -d -1 -p AODV -e 48 -c 2 -a 0 -i 0 -k RTR
h -t 1.013804936 -s 12 -d -1 -p AODV -e 48 -c 2 -a 0 -i 0 -k RTR
+ -t 1.017015656 -s 10 -d 0 -p AODV -e 44 -c 2 -a 0 -i 0 -k RTR 
- -t 1.017015656 -s 10 -d 0 -p AODV -e 44 -c 2 -a 0 -i 0 -k RTR
h -t 1.017015656 -s 10 -d 0 -p AODV -e 44 -c 2 -a 0 -i 0 -k RTR
+ -t 1.022046332 -s 0 -d 10 -p tcp -e 40 -c 2 -a 0 -i 0 -k RTR 
- -t 1.022046332 -s 0 -d 10 -p tcp -e 40 -c 2 -a 0 -i 0 -k RTR
h -t 1.022046332 -s 0 -d 10 -p tcp -e 40 -c 2 -a 0 -i 0 -k RTR
+ -t 1.023971907 -s 10 -d 6 -p tcp -e 40 -c 2 -a 0 -i 0 -k RTR 
- -t 1.023971907 -s 10 -d 6 -p tcp -e 40 -c 2 -a 0 -i 0 -k RTR
h -t 1.023971907 -s 10 -d 6 -p tcp -e 40 -c 2 -a 0 -i 0 -k RTR
+ -t 1.026037626 -s 6 -d 4 -p tcp -e 40 -c 2 -a 0 -i 0 -k RTR 
- -t 1.026037626 -s 6 -d 4 -p tcp -e 40 -c 2 -a 0 -i 0 -k RTR
h -t 1.026037626 -s 6 -d 4 -p tcp -e 40 -c 2 -a 0 -i 0 -k RTR
r -t 1.027400310 -s 6 -d -1 -p AODV -e 48 -c 2 -a 0 -i 0 -k RTR
r -t 1.027400444 -s 4 -d -1 -p AODV -e 48 -c 2 -a 0 -i 0 -k RTR
r -t 1.027400669 -s 13 -d -1 -p AODV -e 48 -c 2 -a 0 -i 0 -k RTR
r -t 1.027400715 -s 11 -d -1 -p AODV -e 48 -c 2 -a 0 -i 0 -k RTR
r -t 1.028952446 -s 4 -d 4 -p tcp -e 40 -c 2 -a 0 -i 0 -k AGT
+ -t 1.028952446 -s 4 -d -1 -p ack -e 40 -c 2 -a 0 -i 1 -k AGT 
- -t 1.028952446 -s 4 -d -1 -p ack -e 40 -c 2 -a 0 -i 1 -k AGT
h -t 1.028952446 -s 4 -d -1 -p ack -e 40 -c 2 -a 0 -i 1 -k AGT
+ -t 1.028952446 -s 4 -d 6 -p ack -e 40 -c 2 -a 0 -i 1 -k RTR 
- -t 1.028952446 -s 4 -d 6 -p ack -e 40 -c 2 -a 0 -i 1 -k RTR
h -t 1.028952446 -s 4 -d 6 -p ack -e 40 -c 2 -a 0 -i 1 -k RTR
+ -t 1.029572263 -s 13 -d -1 -p AODV -e 48 -c 2 -a 0 -i 0 -k RTR 
- -t 1.029572263 -s 13 -d -1 -p AODV -e 48 -c 2 -a 0 -i 0 -k RTR
h -t 1.029572263 -s 13 -d -1 -p AODV -e 48 -c 2 -a 0 -i 0 -k RTR
+ -t 1.029812971 -s 11 -d -1 -p AODV -e 48 -c 2 -a 0 -i 0 -k RTR 
- -t 1.029812971 -s 11 -d -1 -p AODV -e 48 -c 2 -a 0 -i 0 -k RTR
h -t 1.029812971 -s 11 -d -1 -p AODV -e 48 -c 2 -a 0 -i 0 -k RTR
+ -t 1.030818583 -s 6 -d 10 -p ack -e 40 -c 2 -a 0 -i 1 -k RTR 
- -t 1.030818583 -s 6 -d 10 -p ack -e 40 -c 2 -a 0 -i 1 -k RTR
h -t 1.030818583 -s 6 -d 10 -p ack -e 40 -c 2 -a 0 -i 1 -k RTR
+ -t 1.032924302 -s 10 -d 0 -p ack -e 40 -c 2 -a 0 -i 1 -k RTR 
- -t 1.032924302 -s 10 -d 0 -p ack -e 40 -c 2 -a 0 -i 1 -k RTR
h -t 1.032924302 -s 10 -d 0 -p ack -e 40 -c 2 -a 0 -i 1 -k RTR
r -t 1.034969878 -s 0 -d 0 -p ack -e 40 -c 2 -a 0 -i 1 -k AGT
+ -t 1.034969878 -s 0 -d -1 -p tcp -e 1540 -c 2 -a 0 -i 2 -k AGT 
- -t 1.034969878 -s 0 -d -1 -p tcp -e 1540 -c 2 -a 0 -i 2 -k AGT
h -t 1.034969878 -s 0 -d -1 -p tcp -e 1540 -c 2 -a 0 -i 2 -k AGT
+ -t 1.034969878 -s 0 -d -1 -p tcp -e 1540 -c 2 -a 0 -i 3 -k AGT 
- -t 1.034969878 -s 0 -d -1 -p tcp -e 1540 -c 2 -a 0 -i 3 -k AGT
h -t 1.034969878 -s 0 -d -1 -p tcp -e 1540 -c 2 -a 0 -i 3 -k AGT
+ -t 1.034969878 -s 0 -d 10 -p tcp -e 1540 -c 2 -a 0 -i 2 -k RTR 
- -t 1.034969878 -s 0 -d 10 -p tcp -e 1540 -c 2 -a 0 -i 2 -k RTR
h -t 1.034969878 -s 0 -d 10 -p tcp -e 1540 -c 2 -a 0 -i 2 -k RTR
+ -t 1.034969878 -s 0 -d 10 -p tcp -e 1540 -c 2 -a 0 -i 3 -k RTR 
- -t 1.034969878 -s 0 -d 10 -p tcp -e 1540 -c 2 -a 0 -i 3 -k RTR
h -t 1.034969878 -s 0 -d 10 -p tcp -e 1540 -c 2 -a 0 -i 3 -k RTR
r -t 1.037324328 -s 2 -d -1 -p AODV -e 48 -c 2 -a 0 -i 0 -k RTR
r -t 1.037324554 -s 7 -d -1 -p AODV -e 48 -c 2 -a 0 -i 0 -k RTR
r -t 1.037324566 -s 3 -d -1 -p AODV -e 48 -c 2 -a 0 -i 0 -k RTR
r -t 1.037324588 -s 14 -d -1 -p AODV -e 48 -c 2 -a 0 -i 0 -k RTR
+ -t 1.038444901 -s 14 -d -1 -p AODV -e 48 -c 2 -a 0 -i 0 -k RTR 
- -t 1.038444901 -s 14 -d -1 -p AODV -e 48 -c 2 -a 0 -i 0 -k RTR
h -t 1.038444901 -s 14 -d -1 -p AODV -e 48 -c 2 -a 0 -i 0 -k RTR
r -t 1.039453021 -s 3 -d -1 -p AODV -e 48 -c 2 -a 0 -i 0 -k RTR
r -t 1.039453470 -s 13 -d -1 -p AODV -e 48 -c 2 -a 0 -i 0 -k RTR
r -t 1.039453615 -s 8 -d -1 -p AODV -e 48 -c 2 -a 0 -i 0 -k RTR
r -t 1.039453713 -s 2 -d -1 -p AODV -e 48 -c 2 -a 0 -i 0 -k RTR
+ -t 1.045403888 -s 8 -d -1 -p AODV -e 48 -c 2 -a 0 -i 0 -k RTR 
- -t 1.045403888 -s 8 -d -1 -p AODV -e 48 -c 2 -a 0 -i 0 -k RTR
h -t 1.045403888 -s 8 -d -1 -p AODV -e 48 -c 2 -a 0 -i 0 -k RTR
+ -t 1.046198763 -s 2 -d -1 -p AODV -e 48 -c 2 -a 0 -i 0 -k RTR 
- -t 1.046198763 -s 2 -d -1 -p AODV -e 48 -c 2 -a 0 -i 0 -k RTR
h -t 1.046198763 -s 2 -d -1 -p AODV -e 48 -c 2 -a 0 -i 0 -k RTR
+ -t 1.046238045 -s 3 -d -1 -p AODV -e 48 -c 2 -a 0 -i 0 -k RTR 
- -t 1.046238045 -s 3 -d -1 -p AODV -e 48 -c 2 -a 0 -i 0 -k RTR
h -t 1.046238045 -s 3 -d -1 -p AODV -e 48 -c 2 -a 0 -i 0 -k RTR
+ -t 1.046787203 -s 7 -d -1 -p AODV -e 48 -c 2 -a 0 -i 0 -k RTR 
- -t 1.046787203 -s 7 -d -1 -p AODV -e 48 -c 2 -a 0 -i 0 -k RTR
h -t 1.046787203 -s 7 -d -1 -p AODV -e 48 -c 2 -a 0 -i 0 -k RTR
r -t 1.046852602 -s 14 -d -1 -p AODV -e 48 -c 2 -a 0 -i 0 -k RTR
r -t 1.046852685 -s 3 -d -1 -p AODV -e 48 -c 2 -a 0 -i 0 -k RTR
r -t 1.047930805 -s 14 -d -1 -p AODV -e 48 -c 2 -a 0 -i 0 -k RTR
r -t 1.047931233 -s 13 -d -1 -p AODV -e 48 -c 2 -a 0 -i 0 -k RTR
r -t 1.047931439 -s 2 -d -1 -p AODV -e 48 -c 2 -a 0 -i 0 -k RTR
r -t 1.047931481 -s 8 -d -1 -p AODV -e 48 -c 2 -a 0 -i 0 -k RTR
+ -t 1.048835453 -s 10 -d 6 -p tcp -e 1540 -c 2 -a 0 -i 2 -k RTR 
- -t 1.048835453 -s 10 -d 6 -p tcp -e 1540 -c 2 -a 0 -i 2 -k RTR
h -t 1.048835453 -s 10 -d 6 -p tcp -e 1540 -c 2 -a 0 -i 2 -k RTR
r -t 1.049109720 -s 7 -d -1 -p AODV -e 48 -c 2 -a 0 -i 0 -k RTR
r -t 1.049109748 -s 13 -d -1 -p AODV -e 48 -c 2 -a 0 -i 0 -k RTR
r -t 1.049110178 -s 1 -d -1 -p AODV -e 48 -c 2 -a 0 -i 0 -k RTR
r -t 1.049110192 -s 3 -d -1 -p AODV -e 48 -c 2 -a 0 -i 0 -k RTR
r -t 1.049110250 -s 14 -d -1 -p AODV -e 48 -c 2 -a 0 -i 0 -k RTR
r -t 1.051430512 -s 2 -d -1 -p AODV -e 48 -c 2 -a 0 -i 0 -k RTR
r -t 1.051430766 -s 13 -d -1 -p AODV -e 48 -c 2 -a 0 -i 0 -k RTR
r -t 1.051431057 -s 1 -d -1 -p AODV -e 48 -c 2 -a 0 -i 0 -k RTR
+ -t 1.051728419 -s 1 -d -1 -p AODV -e 48 -c 2 -a 0 -i 0 -k RTR 
- -t 1.051728419 -s 1 -d -1 -p AODV -e 48 -c 2 -a 0 -i 0 -k RTR
h -t 1.051728419 -s 1 -d -1 -p AODV -e 48 -c 2 -a 0 -i 0 -k RTR
r -t 1.052757158 -s 2 -d -1 -p AODV -e 48 -c 2 -a 0 -i 0 -k RTR
r -t 1.052757246 -s 7 -d -1 -p AODV -e 48 -c 2 -a 0 -i 0 -k RTR
+ -t 1.062821554 -s 10 -d 6 -p tcp -e 1540 -c 2 -a 0 -i 3 -k RTR 
- -t 1.062821554 -s 10 -d 6 -p tcp -e 1540 -c 2 -a 0 -i 3 -k RTR
h -t 1.062821554 -s 10 -d 6 -p tcp -e 1540 -c 2 -a 0 -i 3 -k RTR
+ -t 1.076807273 -s 6 -d 4 -p tcp -e 1540 -c 2 -a 0 -i 2 -k RTR 
- -t 1.076807273 -s 6 -d 4 -p tcp -e 1540 -c 2 -a 0 -i 2 -k RTR
h -t 1.076807273 -s 6 -d 4 -p tcp -e 1540 -c 2 -a 0 -i 2 -k RTR
r -t 1.090873407 -s 4 -d 4 -p tcp -e 1540 -c 2 -a 0 -i 2 -k AGT
+ -t 1.090873407 -s 4 -d -1 -p ack -e 40 -c 2 -a 0 -i 4 -k AGT 
- -t 1.090873407 -s 4 -d -1 -p ack -e 40 -c 2 -a 0 -i 4 -k AGT
h -t 1.090873407 -s 4 -d -1 -p ack -e 40 -c 2 -a 0 -i 4 -k AGT
+ -t 1.090873407 -s 4 -d 6 -p ack -e 40 -c 2 -a 0 -i 4 -k RTR 
- -t 1.090873407 -s 4 -d 6 -p ack -e 40 -c 2 -a 0 -i 4 -k RTR
h -t 1.090873407 -s 4 -d 6 -p ack -e 40 -c 2 -a 0 -i 4 -k RTR
+ -t 1.092979539 -s 6 -d 10 -p ack -e 40 -c 2 -a 0 -i 4 -k RTR 
- -t 1.092979539 -s 6 -d 10 -p ack -e 40 -c 2 -a 0 -i 4 -k RTR
h -t 1.092979539 -s 6 -d 10 -p ack -e 40 -c 2 -a 0 -i 4 -k RTR
+ -t 1.106935782 -s 6 -d 4 -p tcp -e 1540 -c 2 -a 0 -i 3 -k RTR 
- -t 1.106935782 -s 6 -d 4 -p tcp -e 1540 -c 2 -a 0 -i 3 -k RTR
h -t 1.106935782 -s 6 -d 4 -p tcp -e 1540 -c 2 -a 0 -i 3 -k RTR
+ -t 1.109121499 -s 10 -d 0 -p ack -e 40 -c 2 -a 0 -i 4 -k RTR 
- -t 1.109121499 -s 10 -d 0 -p ack -e 40 -c 2 -a 0 -i 4 -k RTR
h -t 1.109121499 -s 10 -d 0 -p ack -e 40 -c 2 -a 0 -i 4 -k RTR
r -t 1.122988204 -s 4 -d 4 -p tcp -e 1540 -c 2 -a 0 -i 3 -k AGT
+ -t 1.122988204 -s 4 -d -1 -p ack -e 40 -c 2 -a 0 -i 5 -k AGT 
- -t 1.122988204 -s 4 -d -1 -p ack -e 40 -c 2 -a 0 -i 5 -k AGT
h -t 1.122988204 -s 4 -d -1 -p ack -e 40 -c 2 -a 0 -i 5 -k AGT
+ -t 1.122988204 -s 4 -d 6 -p ack -e 40 -c 2 -a 0 -i 5 -k RTR 
- -t 1.122988204 -s 4 -d 6 -p ack -e 40 -c 2 -a 0 -i 5 -k RTR
h -t 1.122988204 -s 4 -d 6 -p ack -e 40 -c 2 -a 0 -i 5 -k RTR
+ -t 1.125274335 -s 6 -d 10 -p ack -e 40 -c 2 -a 0 -i 5 -k RTR 
- -t 1.125274335 -s 6 -d 10 -p ack -e 40 -c 2 -a 0 -i 5 -k RTR
h -t 1.125274335 -s 6 -d 10 -p ack -e 40 -c 2 -a 0 -i 5 -k RTR
+ -t 1.127300052 -s 10 -d 0 -p ack -e 40 -c 2 -a 0 -i 5 -k RTR 
- -t 1.127300052 -s 10 -d 0 -p ack -e 40 -c 2 -a 0 -i 5 -k RTR
h -t 1.127300052 -s 10 -d 0 -p ack -e 40 -c 2 -a 0 -i 5 -k RTR
r -t 1.129165629 -s 0 -d 0 -p ack -e 40 -c 2 -a 0 -i 4 -k AGT
+ -t 1.129165629 -s 0 -d -1 -p tcp -e 1540 -c 2 -a 0 -i 6 -k AGT 
- -t 1.129165629 -s 0 -d -1 -p tcp -e 1540 -c 2 -a 0 -i 6 -k AGT
h -t 1.129165629 -s 0 -d -1 -p tcp -e 1540 -c 2 -a 0 -i 6 -k AGT
+ -t 1.129165629 -s 0 -d -1 -p tcp -e 1540 -c 2 -a 0 -i 7 -k AGT 
- -t 1.129165629 -s 0 -d -1 -p tcp -e 1540 -c 2 -a 0 -i 7 -k AGT
h -t 1.129165629 -s 0 -d -1 -p tcp -e 1540 -c 2 -a 0 -i 7 -k AGT
+ -t 1.129165629 -s 0 -d 10 -p tcp -e 1540 -c 2 -a 0 -i 6 -k RTR 
- -t 1.129165629 -s 0 -d 10 -p tcp -e 1540 -c 2 -a 0 -i 6 -k RTR
h -t 1.129165629 -s 0 -d 10 -p tcp -e 1540 -c 2 -a 0 -i 6 -k RTR
+ -t 1.129165629 -s 0 -d 10 -p tcp -e 1540 -c 2 -a 0 -i 7 -k RTR 
- -t 1.129165629 -s 0 -d 10 -p tcp -e 1540 -c 2 -a 0 -i 7 -k RTR
h -t 1.129165629 -s 0 -d 10 -p tcp -e 1540 -c 2 -a 0 -i 7 -k RTR
r -t 1.131191733 -s 0 -d 0 -p ack -e 40 -c 2 -a 0 -i 5 -k AGT
+ -t 1.131191733 -s 0 -d -1 -p tcp -e 1540 -c 2 -a 0 -i 8 -k AGT 
- -t 1.131191733 -s 0 -d -1 -p tcp -e 1540 -c 2 -a 0 -i 8 -k AGT
h -t 1.131191733 -s 0 -d -1 -p tcp -e 1540 -c 2 -a 0 -i 8 -k AGT
+ -t 1.131191733 -s 0 -d -1 -p tcp -e 1540 -c 2 -a 0 -i 9 -k AGT 
- -t 1.131191733 -s 0 -d -1 -p tcp -e 1540 -c 2 -a 0 -i 9 -k AGT
h -t 1.131191733 -s 0 -d -1 -p tcp -e 1540 -c 2 -a 0 -i 9 -k AGT
+ -t 1.131191733 -s 0 -d 10 -p tcp -e 1540 -c 2 -a 0 -i 8 -k RTR 
- -t 1.131191733 -s 0 -d 10 -p tcp -e 1540 -c 2 -a 0 -i 8 -k RTR
h -t 1.131191733 -s 0 -d 10 -p tcp -e 1540 -c 2 -a 0 -i 8 -k RTR
+ -t 1.131191733 -s 0 -d 10 -p tcp -e 1540 -c 2 -a 0 -i 9 -k RTR 
- -t 1.131191733 -s 0 -d 10 -p tcp -e 1540 -c 2 -a 0 -i 9 -k RTR
h -t 1.131191733 -s 0 -d 10 -p tcp -e 1540 -c 2 -a 0 -i 9 -k RTR
+ -t 1.145077310 -s 10 -d 6 -p tcp -e 1540 -c 2 -a 0 -i 6 -k RTR 
- -t 1.145077310 -s 10 -d 6 -p tcp -e 1540 -c 2 -a 0 -i 6 -k RTR
h -t 1.145077310 -s 10 -d 6 -p tcp -e 1540 -c 2 -a 0 -i 6 -k RTR
+ -t 1.159243027 -s 6 -d 4 -p tcp -e 1540 -c 2 -a 0 -i 6 -k RTR 
- -t 1.159243027 -s 6 -d 4 -p tcp -e 1540 -c 2 -a 0 -i 6 -k RTR
h -t 1.159243027 -s 6 -d 4 -p tcp -e 1540 -c 2 -a 0 -i 6 -k RTR
r -t 1.173189156 -s 4 -d 4 -p tcp -e 1540 -c 2 -a 0 -i 6 -k AGT
+ -t 1.173189156 -s 4 -d -1 -p ack -e 40 -c 2 -a 0 -i 10 -k AGT 
- -t 1.173189156 -s 4 -d -1 -p ack -e 40 -c 2 -a 0 -i 10 -k AGT
h -t 1.173189156 -s 4 -d -1 -p ack -e 40 -c 2 -a 0 -i 10 -k AGT
+ -t 1.173189156 -s 4 -d 6 -p ack -e 40 -c 2 -a 0 -i 10 -k RTR 
- -t 1.173189156 -s 4 -d 6 -p ack -e 40 -c 2 -a 0 -i 10 -k RTR
h -t 1.173189156 -s 4 -d 6 -p ack -e 40 -c 2 -a 0 -i 10 -k RTR
r -t 1.174827078 -s 12 -d -1 -p AODV -e 48 -c 2 -a 0 -i 0 -k RTR
r -t 1.174827105 -s 9 -d -1 -p AODV -e 48 -c 2 -a 0 -i 0 -k RTR
+ -t 1.176863634 -s 6 -d 10 -p ack -e 40 -c 2 -a 0 -i 10 -k RTR 
- -t 1.176863634 -s 6 -d 10 -p ack -e 40 -c 2 -a 0 -i 10 -k RTR
h -t 1.176863634 -s 6 -d 10 -p ack -e 40 -c 2 -a 0 -i 10 -k RTR
+ -t 1.182982928 -s 9 -d -1 -p AODV -e 48 -c 2 -a 0 -i 0 -k RTR 
- -t 1.182982928 -s 9 -d -1 -p AODV -e 48 -c 2 -a 0 -i 0 -k RTR
h -t 1.182982928 -s 9 -d -1 -p AODV -e 48 -c 2 -a 0 -i 0 -k RTR
+ -t 1.191094201 -s 10 -d 6 -p tcp -e 1540 -c 2 -a 0 -i 7 -k RTR 
- -t 1.191094201 -s 10 -d 6 -p tcp -e 1540 -c 2 -a 0 -i 7 -k RTR
h -t 1.191094201 -s 10 -d 6 -p tcp -e 1540 -c 2 -a 0 -i 7 -k RTR
+ -t 1.193110379 -s 10 -d 0 -p ack -e 40 -c 2 -a 0 -i 10 -k RTR 
- -t 1.193110379 -s 10 -d 0 -p ack -e 40 -c 2 -a 0 -i 10 -k RTR
h -t 1.193110379 -s 10 -d 0 -p ack -e 40 -c 2 -a 0 -i 10 -k RTR
+ -t 1.207056095 -s 6 -d 4 -p tcp -e 1540 -c 2 -a 0 -i 7 -k RTR 
- -t 1.207056095 -s 6 -d 4 -p tcp -e 1540 -c 2 -a 0 -i 7 -k RTR
h -t 1.207056095 -s 6 -d 4 -p tcp -e 1540 -c 2 -a 0 -i 7 -k RTR
r -t 1.209102246 -s 0 -d 0 -p ack -e 40 -c 2 -a 0 -i 10 -k AGT
+ -t 1.209102246 -s 0 -d -1 -p tcp -e 1540 -c 2 -a 0 -i 11 -k AGT 
- -t 1.209102246 -s 0 -d -1 -p tcp -e 1540 -c 2 -a 0 -i 11 -k AGT
h -t 1.209102246 -s 0 -d -1 -p tcp -e 1540 -c 2 -a 0 -i 11 -k AGT
+ -t 1.209102246 -s 0 -d -1 -p tcp -e 1540 -c 2 -a 0 -i 12 -k AGT 
- -t 1.209102246 -s 0 -d -1 -p tcp -e 1540 -c 2 -a 0 -i 12 -k AGT
h -t 1.209102246 -s 0 -d -1 -p tcp -e 1540 -c 2 -a 0 -i 12 -k AGT
+ -t 1.209102246 -s 0 -d 10 -p tcp -e 1540 -c 2 -a 0 -i 11 -k RTR 
- -t 1.209102246 -s 0 -d 10 -p tcp -e 1540 -c 2 -a 0 -i 11 -k RTR
h -t 1.209102246 -s 0 -d 10 -p tcp -e 1540 -c 2 -a 0 -i 11 -k RTR
+ -t 1.209102246 -s 0 -d 10 -p tcp -e 1540 -c 2 -a 0 -i 12 -k RTR 
- -t 1.209102246 -s 0 -d 10 -p tcp -e 1540 -c 2 -a 0 -i 12 -k RTR
h -t 1.209102246 -s 0 -d 10 -p tcp -e 1540 -c 2 -a 0 -i 12 -k RTR
+ -t 1.223027826 -s 10 -d 6 -p tcp -e 1540 -c 2 -a 0 -i 8 -k RTR 
- -t 1.223027826 -s 10 -d 6 -p tcp -e 1540 -c 2 -a 0 -i 8 -k RTR
h -t 1.223027826 -s 10 -d 6 -p tcp -e 1540 -c 2 -a 0 -i 8 -k RTR
+ -t 1.236933541 -s 6 -d 4 -p tcp -e 1540 -c 2 -a 0 -i 8 -k RTR 
- -t 1.236933541 -s 6 -d 4 -p tcp -e 1540 -c 2 -a 0 -i 8 -k RTR
h -t 1.236933541 -s 6 -d 4 -p tcp -e 1540 -c 2 -a 0 -i 8 -k RTR
r -t 1.251099665 -s 4 -d 4 -p tcp -e 1540 -c 2 -a 0 -i 7 -k AGT
+ -t 1.251099665 -s 4 -d -1 -p ack -e 40 -c 2 -a 0 -i 13 -k AGT 
- -t 1.251099665 -s 4 -d -1 -p ack -e 40 -c 2 -a 0 -i 13 -k AGT
h -t 1.251099665 -s 4 -d -1 -p ack -e 40 -c 2 -a 0 -i 13 -k AGT
+ -t 1.251099665 -s 4 -d 6 -p ack -e 40 -c 2 -a 0 -i 13 -k RTR 
- -t 1.251099665 -s 4 -d 6 -p ack -e 40 -c 2 -a 0 -i 13 -k RTR
h -t 1.251099665 -s 4 -d 6 -p ack -e 40 -c 2 -a 0 -i 13 -k RTR
r -t 1.265046495 -s 4 -d 4 -p tcp -e 1540 -c 2 -a 0 -i 8 -k AGT
+ -t 1.265046495 -s 4 -d -1 -p ack -e 40 -c 2 -a 0 -i 14 -k AGT 
- -t 1.265046495 -s 4 -d -1 -p ack -e 40 -c 2 -a 0 -i 14 -k AGT
h -t 1.265046495 -s 4 -d -1 -p ack -e 40 -c 2 -a 0 -i 14 -k AGT
+ -t 1.265046495 -s 4 -d 6 -p ack -e 40 -c 2 -a 0 -i 14 -k RTR 
- -t 1.265046495 -s 4 -d 6 -p ack -e 40 -c 2 -a 0 -i 14 -k RTR
h -t 1.265046495 -s 4 -d 6 -p ack -e 40 -c 2 -a 0 -i 14 -k RTR
+ -t 1.280506197 -s 10 -d 6 -p tcp -e 1540 -c 2 -a 0 -i 9 -k RTR 
- -t 1.280506197 -s 10 -d 6 -p tcp -e 1540 -c 2 -a 0 -i 9 -k RTR
h -t 1.280506197 -s 10 -d 6 -p tcp -e 1540 -c 2 -a 0 -i 9 -k RTR
+ -t 1.294371911 -s 6 -d 4 -p tcp -e 1540 -c 2 -a 0 -i 9 -k RTR 
- -t 1.294371911 -s 6 -d 4 -p tcp -e 1540 -c 2 -a 0 -i 9 -k RTR
h -t 1.294371911 -s 6 -d 4 -p tcp -e 1540 -c 2 -a 0 -i 9 -k RTR
+ -t 1.296548688 -s 6 -d 10 -p ack -e 40 -c 2 -a 0 -i 13 -k RTR 
- -t 1.296548688 -s 6 -d 10 -p ack -e 40 -c 2 -a 0 -i 13 -k RTR
h -t 1.296548688 -s 6 -d 10 -p ack -e 40 -c 2 -a 0 -i 13 -k RTR
r -t 1.310394808 -s 4 -d 4 -p tcp -e 1540 -c 2 -a 0 -i 9 -k AGT
+ -t 1.310394808 -s 4 -d -1 -p ack -e 40 -c 2 -a 0 -i 15 -k AGT 
- -t 1.310394808 -s 4 -d -1 -p ack -e 40 -c 2 -a 0 -i 15 -k AGT
h -t 1.310394808 -s 4 -d -1 -p ack -e 40 -c 2 -a 0 -i 15 -k AGT
+ -t 1.310394808 -s 4 -d 6 -p ack -e 40 -c 2 -a 0 -i 15 -k RTR 
- -t 1.310394808 -s 4 -d 6 -p ack -e 40 -c 2 -a 0 -i 15 -k RTR
h -t 1.310394808 -s 4 -d 6 -p ack -e 40 -c 2 -a 0 -i 15 -k RTR
+ -t 1.312640927 -s 6 -d 10 -p ack -e 40 -c 2 -a 0 -i 14 -k RTR 
- -t 1.312640927 -s 6 -d 10 -p ack -e 40 -c 2 -a 0 -i 14 -k RTR
h -t 1.312640927 -s 6 -d 10 -p ack -e 40 -c 2 -a 0 -i 14 -k RTR
+ -t 1.314566641 -s 10 -d 0 -p ack -e 40 -c 2 -a 0 -i 13 -k RTR 
- -t 1.314566641 -s 10 -d 0 -p ack -e 40 -c 2 -a 0 -i 13 -k RTR
h -t 1.314566641 -s 10 -d 0 -p ack -e 40 -c 2 -a 0 -i 13 -k RTR
+ -t 1.316412925 -s 10 -d 0 -p ack -e 40 -c 2 -a 0 -i 14 -k RTR 
- -t 1.316412925 -s 10 -d 0 -p ack -e 40 -c 2 -a 0 -i 14 -k RTR
h -t 1.316412925 -s 10 -d 0 -p ack -e 40 -c 2 -a 0 -i 14 -k RTR
+ -t 1.330348922 -s 10 -d 6 -p tcp -e 1540 -c 2 -a 0 -i 11 -k RTR 
- -t 1.330348922 -s 10 -d 6 -p tcp -e 1540 -c 2 -a 0 -i 11 -k RTR
h -t 1.330348922 -s 10 -d 6 -p tcp -e 1540 -c 2 -a 0 -i 11 -k RTR
r -t 1.332214505 -s 0 -d 0 -p ack -e 40 -c 2 -a 0 -i 13 -k AGT
+ -t 1.332214505 -s 0 -d -1 -p tcp -e 1540 -c 2 -a 0 -i 16 -k AGT 
- -t 1.332214505 -s 0 -d -1 -p tcp -e 1540 -c 2 -a 0 -i 16 -k AGT
h -t 1.332214505 -s 0 -d -1 -p tcp -e 1540 -c 2 -a 0 -i 16 -k AGT
+ -t 1.332214505 -s 0 -d -1 -p tcp -e 1540 -c 2 -a 0 -i 17 -k AGT 
- -t 1.332214505 -s 0 -d -1 -p tcp -e 1540 -c 2 -a 0 -i 17 -k AGT
h -t 1.332214505 -s 0 -d -1 -p tcp -e 1540 -c 2 -a 0 -i 17 -k AGT
+ -t 1.332214505 -s 0 -d 10 -p tcp -e 1540 -c 2 -a 0 -i 16 -k RTR 
- -t 1.332214505 -s 0 -d 10 -p tcp -e 1540 -c 2 -a 0 -i 16 -k RTR
h -t 1.332214505 -s 0 -d 10 -p tcp -e 1540 -c 2 -a 0 -i 16 -k RTR
+ -t 1.332214505 -s 0 -d 10 -p tcp -e 1540 -c 2 -a 0 -i 17 -k RTR 
- -t 1.332214505 -s 0 -d 10 -p tcp -e 1540 -c 2 -a 0 -i 17 -k RTR
h -t 1.332214505 -s 0 -d 10 -p tcp -e 1540 -c 2 -a 0 -i 17 -k RTR
r -t 1.334040614 -s 0 -d 0 -p ack -e 40 -c 2 -a 0 -i 14 -k AGT
+ -t 1.334040614 -s 0 -d -1 -p tcp -e 1540 -c 2 -a 0 -i 18 -k AGT 
- -t 1.334040614 -s 0 -d -1 -p tcp -e 1540 -c 2 -a 0 -i 18 -k AGT
h -t 1.334040614 -s 0 -d -1 -p tcp -e 1540 -c 2 -a 0 -i 18 -k AGT
+ -t 1.334040614 -s 0 -d -1 -p tcp -e 1540 -c 2 -a 0 -i 19 -k AGT 
- -t 1.334040614 -s 0 -d -1 -p tcp -e 1540 -c 2 -a 0 -i 19 -k AGT
h -t 1.334040614 -s 0 -d -1 -p tcp -e 1540 -c 2 -a 0 -i 19 -k AGT
+ -t 1.334040614 -s 0 -d 10 -p tcp -e 1540 -c 2 -a 0 -i 18 -k RTR 
- -t 1.334040614 -s 0 -d 10 -p tcp -e 1540 -c 2 -a 0 -i 18 -k RTR
h -t 1.334040614 -s 0 -d 10 -p tcp -e 1540 -c 2 -a 0 -i 18 -k RTR
+ -t 1.334040614 -s 0 -d 10 -p tcp -e 1540 -c 2 -a 0 -i 19 -k RTR 
- -t 1.334040614 -s 0 -d 10 -p tcp -e 1540 -c 2 -a 0 -i 19 -k RTR
h -t 1.334040614 -s 0 -d 10 -p tcp -e 1540 -c 2 -a 0 -i 19 -k RTR
+ -t 1.336934485 -s 6 -d 10 -p ack -e 40 -c 2 -a 0 -i 15 -k RTR 
- -t 1.336934485 -s 6 -d 10 -p ack -e 40 -c 2 -a 0 -i 15 -k RTR
h -t 1.336934485 -s 6 -d 10 -p ack -e 40 -c 2 -a 0 -i 15 -k RTR
+ -t 1.339180197 -s 10 -d 0 -p ack -e 40 -c 2 -a 0 -i 15 -k RTR 
- -t 1.339180197 -s 10 -d 0 -p ack -e 40 -c 2 -a 0 -i 15 -k RTR
h -t 1.339180197 -s 10 -d 0 -p ack -e 40 -c 2 -a 0 -i 15 -k RTR
+ -t 1.353245910 -s 6 -d 4 -p tcp -e 1540 -c 2 -a 0 -i 11 -k RTR 
- -t 1.353245910 -s 6 -d 4 -p tcp -e 1540 -c 2 -a 0 -i 11 -k RTR
h -t 1.353245910 -s 6 -d 4 -p tcp -e 1540 -c 2 -a 0 -i 11 -k RTR
r -t 1.367132027 -s 4 -d 4 -p tcp -e 1540 -c 2 -a 0 -i 11 -k AGT
+ -t 1.367132027 -s 4 -d -1 -p ack -e 40 -c 2 -a 0 -i 20 -k AGT 
- -t 1.367132027 -s 4 -d -1 -p ack -e 40 -c 2 -a 0 -i 20 -k AGT
h -t 1.367132027 -s 4 -d -1 -p ack -e 40 -c 2 -a 0 -i 20 -k AGT
+ -t 1.367132027 -s 4 -d 6 -p ack -e 40 -c 2 -a 0 -i 20 -k RTR 
- -t 1.367132027 -s 4 -d 6 -p ack -e 40 -c 2 -a 0 -i 20 -k RTR
h -t 1.367132027 -s 4 -d 6 -p ack -e 40 -c 2 -a 0 -i 20 -k RTR
+ -t 1.368978143 -s 6 -d 10 -p ack -e 40 -c 2 -a 0 -i 20 -k RTR 
- -t 1.368978143 -s 6 -d 10 -p ack -e 40 -c 2 -a 0 -i 20 -k RTR
h -t 1.368978143 -s 6 -d 10 -p ack -e 40 -c 2 -a 0 -i 20 -k RTR
+ -t 1.370823855 -s 10 -d 0 -p ack -e 40 -c 2 -a 0 -i 20 -k RTR 
- -t 1.370823855 -s 10 -d 0 -p ack -e 40 -c 2 -a 0 -i 20 -k RTR
h -t 1.370823855 -s 10 -d 0 -p ack -e 40 -c 2 -a 0 -i 20 -k RTR
r -t 1.372869438 -s 0 -d 0 -p ack -e 40 -c 2 -a 0 -i 15 -k AGT
+ -t 1.372869438 -s 0 -d -1 -p tcp -e 1540 -c 2 -a 0 -i 21 -k AGT 
- -t 1.372869438 -s 0 -d -1 -p tcp -e 1540 -c 2 -a 0 -i 21 -k AGT
h -t 1.372869438 -s 0 -d -1 -p tcp -e 1540 -c 2 -a 0 -i 21 -k AGT
+ -t 1.372869438 -s 0 -d -1 -p tcp -e 1540 -c 2 -a 0 -i 22 -k AGT 
- -t 1.372869438 -s 0 -d -1 -p tcp -e 1540 -c 2 -a 0 -i 22 -k AGT
h -t 1.372869438 -s 0 -d -1 -p tcp -e 1540 -c 2 -a 0 -i 22 -k AGT
+ -t 1.372869438 -s 0 -d 10 -p tcp -e 1540 -c 2 -a 0 -i 21 -k RTR 
- -t 1.372869438 -s 0 -d 10 -p tcp -e 1540 -c 2 -a 0 -i 21 -k RTR
h -t 1.372869438 -s 0 -d 10 -p tcp -e 1540 -c 2 -a 0 -i 21 -k RTR
+ -t 1.372869438 -s 0 -d 10 -p tcp -e 1540 -c 2 -a 0 -i 22 -k RTR 
- -t 1.372869438 -s 0 -d 10 -p tcp -e 1540 -c 2 -a 0 -i 22 -k RTR
h -t 1.372869438 -s 0 -d 10 -p tcp -e 1540 -c 2 -a 0 -i 22 -k RTR
r -t 1.375075549 -s 0 -d 0 -p ack -e 40 -c 2 -a 0 -i 20 -k AGT
+ -t 1.375075549 -s 0 -d -1 -p tcp -e 1540 -c 2 -a 0 -i 23 -k AGT 
- -t 1.375075549 -s 0 -d -1 -p tcp -e 1540 -c 2 -a 0 -i 23 -k AGT
h -t 1.375075549 -s 0 -d -1 -p tcp -e 1540 -c 2 -a 0 -i 23 -k AGT
+ -t 1.375075549 -s 0 -d -1 -p tcp -e 1540 -c 2 -a 0 -i 24 -k AGT 
- -t 1.375075549 -s 0 -d -1 -p tcp -e 1540 -c 2 -a 0 -i 24 -k AGT
h -t 1.375075549 -s 0 -d -1 -p tcp -e 1540 -c 2 -a 0 -i 24 -k AGT
+ -t 1.375075549 -s 0 -d 10 -p tcp -e 1540 -c 2 -a 0 -i 23 -k RTR 
- -t 1.375075549 -s 0 -d 10 -p tcp -e 1540 -c 2 -a 0 -i 23 -k RTR
h -t 1.375075549 -s 0 -d 10 -p tcp -e 1540 -c 2 -a 0 -i 23 -k RTR
+ -t 1.375075549 -s 0 -d 10 -p tcp -e 1540 -c 2 -a 0 -i 24 -k RTR 
- -t 1.375075549 -s 0 -d 10 -p tcp -e 1540 -c 2 -a 0 -i 24 -k RTR
h -t 1.375075549 -s 0 -d 10 -p tcp -e 1540 -c 2 -a 0 -i 24 -k RTR
+ -t 1.389081132 -s 10 -d 6 -p tcp -e 1540 -c 2 -a 0 -i 12 -k RTR 
- -t 1.389081132 -s 10 -d 6 -p tcp -e 1540 -c 2 -a 0 -i 12 -k RTR
h -t 1.389081132 -s 10 -d 6 -p tcp -e 1540 -c 2 -a 0 -i 12 -k RTR
+ -t 1.403206843 -s 6 -d 4 -p tcp -e 1540 -c 2 -a 0 -i 12 -k RTR 
- -t 1.403206843 -s 6 -d 4 -p tcp -e 1540 -c 2 -a 0 -i 12 -k RTR
h -t 1.403206843 -s 6 -d 4 -p tcp -e 1540 -c 2 -a 0 -i 12 -k RTR
r -t 1.417212957 -s 4 -d 4 -p tcp -e 1540 -c 2 -a 0 -i 12 -k AGT
+ -t 1.417212957 -s 4 -d -1 -p ack -e 40 -c 2 -a 0 -i 25 -k AGT 
- -t 1.417212957 -s 4 -d -1 -p ack -e 40 -c 2 -a 0 -i 25 -k AGT
h -t 1.417212957 -s 4 -d -1 -p ack -e 40 -c 2 -a 0 -i 25 -k AGT
+ -t 1.417212957 -s 4 -d 6 -p ack -e 40 -c 2 -a 0 -i 25 -k RTR 
- -t 1.417212957 -s 4 -d 6 -p ack -e 40 -c 2 -a 0 -i 25 -k RTR
h -t 1.417212957 -s 4 -d 6 -p ack -e 40 -c 2 -a 0 -i 25 -k RTR
+ -t 1.419299070 -s 6 -d 10 -p ack -e 40 -c 2 -a 0 -i 25 -k RTR 
- -t 1.419299070 -s 6 -d 10 -p ack -e 40 -c 2 -a 0 -i 25 -k RTR
h -t 1.419299070 -s 6 -d 10 -p ack -e 40 -c 2 -a 0 -i 25 -k RTR
+ -t 1.421264781 -s 10 -d 0 -p ack -e 40 -c 2 -a 0 -i 25 -k RTR 
- -t 1.421264781 -s 10 -d 0 -p ack -e 40 -c 2 -a 0 -i 25 -k RTR
h -t 1.421264781 -s 10 -d 0 -p ack -e 40 -c 2 -a 0 -i 25 -k RTR
+ -t 1.435160781 -s 10 -d 6 -p tcp -e 1540 -c 2 -a 0 -i 16 -k RTR 
- -t 1.435160781 -s 10 -d 6 -p tcp -e 1540 -c 2 -a 0 -i 16 -k RTR
h -t 1.435160781 -s 10 -d 6 -p tcp -e 1540 -c 2 -a 0 -i 16 -k RTR
+ -t 1.449086893 -s 10 -d 6 -p tcp -e 1540 -c 2 -a 0 -i 17 -k RTR 
- -t 1.449086893 -s 10 -d 6 -p tcp -e 1540 -c 2 -a 0 -i 17 -k RTR
h -t 1.449086893 -s 10 -d 6 -p tcp -e 1540 -c 2 -a 0 -i 17 -k RTR
+ -t 1.462913006 -s 10 -d 6 -p tcp -e 1540 -c 2 -a 0 -i 18 -k RTR 
- -t 1.462913006 -s 10 -d 6 -p tcp -e 1540 -c 2 -a 0 -i 18 -k RTR
h -t 1.462913006 -s 10 -d 6 -p tcp -e 1540 -c 2 -a 0 -i 18 -k RTR
r -t 1.464878591 -s 0 -d 0 -p ack -e 40 -c 2 -a 0 -i 25 -k AGT
+ -t 1.464878591 -s 0 -d -1 -p tcp -e 1540 -c 2 -a 0 -i 26 -k AGT 
- -t 1.464878591 -s 0 -d -1 -p tcp -e 1540 -c 2 -a 0 -i 26 -k AGT
h -t 1.464878591 -s 0 -d -1 -p tcp -e 1540 -c 2 -a 0 -i 26 -k AGT
+ -t 1.464878591 -s 0 -d -1 -p tcp -e 1540 -c 2 -a 0 -i 27 -k AGT 
- -t 1.464878591 -s 0 -d -1 -p tcp -e 1540 -c 2 -a 0 -i 27 -k AGT
h -t 1.464878591 -s 0 -d -1 -p tcp -e 1540 -c 2 -a 0 -i 27 -k AGT
+ -t 1.464878591 -s 0 -d 10 -p tcp -e 1540 -c 2 -a 0 -i 26 -k RTR 
- -t 1.464878591 -s 0 -d 10 -p tcp -e 1540 -c 2 -a 0 -i 26 -k RTR
h -t 1.464878591 -s 0 -d 10 -p tcp -e 1540 -c 2 -a 0 -i 26 -k RTR
+ -t 1.464878591 -s 0 -d 10 -p tcp -e 1540 -c 2 -a 0 -i 27 -k RTR 
- -t 1.464878591 -s 0 -d 10 -p tcp -e 1540 -c 2 -a 0 -i 27 -k RTR
h -t 1.464878591 -s 0 -d 10 -p tcp -e 1540 -c 2 -a 0 -i 27 -k RTR
+ -t 1.479104176 -s 10 -d 6 -p tcp -e 1540 -c 2 -a 0 -i 19 -k RTR 
- -t 1.479104176 -s 10 -d 6 -p tcp -e 1540 -c 2 -a 0 -i 19 -k RTR
h -t 1.479104176 -s 10 -d 6 -p tcp -e 1540 -c 2 -a 0 -i 19 -k RTR
+ -t 1.493089886 -s 6 -d 4 -p tcp -e 1540 -c 2 -a 0 -i 16 -k RTR 
- -t 1.493089886 -s 6 -d 4 -p tcp -e 1540 -c 2 -a 0 -i 16 -k RTR
h -t 1.493089886 -s 6 -d 4 -p tcp -e 1540 -c 2 -a 0 -i 16 -k RTR
+ -t 1.507136165 -s 6 -d 4 -p tcp -e 1540 -c 2 -a 0 -i 17 -k RTR 
- -t 1.507136165 -s 6 -d 4 -p tcp -e 1540 -c 2 -a 0 -i 17 -k RTR
h -t 1.507136165 -s 6 -d 4 -p tcp -e 1540 -c 2 -a 0 -i 17 -k RTR
r -t 1.521322273 -s 4 -d 4 -p tcp -e 1540 -c 2 -a 0 -i 16 -k AGT
+ -t 1.521322273 -s 4 -d -1 -p ack -e 40 -c 2 -a 0 -i 28 -k AGT 
- -t 1.521322273 -s 4 -d -1 -p ack -e 40 -c 2 -a 0 -i 28 -k AGT
h -t 1.521322273 -s 4 -d -1 -p ack -e 40 -c 2 -a 0 -i 28 -k AGT
+ -t 1.521322273 -s 4 -d 6 -p ack -e 40 -c 2 -a 0 -i 28 -k RTR 
- -t 1.521322273 -s 4 -d 6 -p ack -e 40 -c 2 -a 0 -i 28 -k RTR
h -t 1.521322273 -s 4 -d 6 -p ack -e 40 -c 2 -a 0 -i 28 -k RTR
+ -t 1.523288380 -s 6 -d 10 -p ack -e 40 -c 2 -a 0 -i 28 -k RTR 
- -t 1.523288380 -s 6 -d 10 -p ack -e 40 -c 2 -a 0 -i 28 -k RTR
h -t 1.523288380 -s 6 -d 10 -p ack -e 40 -c 2 -a 0 -i 28 -k RTR
r -t 1.537234486 -s 4 -d 4 -p tcp -e 1540 -c 2 -a 0 -i 17 -k AGT
+ -t 1.537234486 -s 4 -d -1 -p ack -e 40 -c 2 -a 0 -i 29 -k AGT 
- -t 1.537234486 -s 4 -d -1 -p ack -e 40 -c 2 -a 0 -i 29 -k AGT
h -t 1.537234486 -s 4 -d -1 -p ack -e 40 -c 2 -a 0 -i 29 -k AGT
+ -t 1.537234486 -s 4 -d 6 -p ack -e 40 -c 2 -a 0 -i 29 -k RTR 
- -t 1.537234486 -s 4 -d 6 -p ack -e 40 -c 2 -a 0 -i 29 -k RTR
h -t 1.537234486 -s 4 -d 6 -p ack -e 40 -c 2 -a 0 -i 29 -k RTR
+ -t 1.539160897 -s 10 -d 0 -p ack -e 40 -c 2 -a 0 -i 28 -k RTR 
- -t 1.539160897 -s 10 -d 0 -p ack -e 40 -c 2 -a 0 -i 28 -k RTR
h -t 1.539160897 -s 10 -d 0 -p ack -e 40 -c 2 -a 0 -i 28 -k RTR
+ -t 1.553106606 -s 6 -d 4 -p tcp -e 1540 -c 2 -a 0 -i 18 -k RTR 
- -t 1.553106606 -s 6 -d 4 -p tcp -e 1540 -c 2 -a 0 -i 18 -k RTR
h -t 1.553106606 -s 6 -d 4 -p tcp -e 1540 -c 2 -a 0 -i 18 -k RTR
+ -t 1.566932883 -s 6 -d 4 -p tcp -e 1540 -c 2 -a 0 -i 19 -k RTR 
- -t 1.566932883 -s 6 -d 4 -p tcp -e 1540 -c 2 -a 0 -i 19 -k RTR
h -t 1.566932883 -s 6 -d 4 -p tcp -e 1540 -c 2 -a 0 -i 19 -k RTR
r -t 1.580838987 -s 4 -d 4 -p tcp -e 1540 -c 2 -a 0 -i 18 -k AGT
+ -t 1.580838987 -s 4 -d -1 -p ack -e 40 -c 2 -a 0 -i 30 -k AGT 
- -t 1.580838987 -s 4 -d -1 -p ack -e 40 -c 2 -a 0 -i 30 -k AGT
h -t 1.580838987 -s 4 -d -1 -p ack -e 40 -c 2 -a 0 -i 30 -k AGT
+ -t 1.580838987 -s 4 -d 6 -p ack -e 40 -c 2 -a 0 -i 30 -k RTR 
- -t 1.580838987 -s 4 -d 6 -p ack -e 40 -c 2 -a 0 -i 30 -k RTR