s 0.010000000 _0_ AGT  --- 0 tcp 40 [0 0 0 0] ------- [0:0 9:0 32 0] [0 0] 0 0
r 0.010000000 _0_ RTR  --- 0 tcp 40 [0 0 0 0] ------- [0:0 9:0 32 0] [0 0] 0 0
s 0.010000000 _1_ AGT  --- 1 tcp 40 [0 0 0 0] ------- [1:0 8:0 32 0] [0 0] 0 0
r 0.010000000 _1_ RTR  --- 1 tcp 40 [0 0 0 0] ------- [1:0 8:0 32 0] [0 0] 0 0
s 0.010000000 _2_ AGT  --- 2 tcp 40 [0 0 0 0] ------- [2:0 7:0 32 0] [0 0] 0 0
r 0.010000000 _2_ RTR  --- 2 tcp 40 [0 0 0 0] ------- [2:0 7:0 32 0] [0 0] 0 0
s 0.010000000 _3_ AGT  --- 3 tcp 40 [0 0 0 0] ------- [3:0 6:0 32 0] [0 0] 0 0
r 0.010000000 _3_ RTR  --- 3 tcp 40 [0 0 0 0] ------- [3:0 6:0 32 0] [0 0] 0 0
s 0.010000000 _4_ AGT  --- 4 tcp 40 [0 0 0 0] ------- [4:0 5:0 32 0] [0 0] 0 0
r 0.010000000 _4_ RTR  --- 4 tcp 40 [0 0 0 0] ------- [4:0 5:0 32 0] [0 0] 0 0
s 0.010000000 _0_ RTR  --- 0 AODV 48 [0 0 0 0] ------- [0:255 -1:255 30 0] [0x2 1 1 [9 0] [0 4]] (REQUEST)
s 0.010000000 _1_ RTR  --- 0 AODV 48 [0 0 0 0] ------- [1:255 -1:255 30 0] [0x2 1 1 [8 0] [1 4]] (REQUEST)
s 0.010000000 _2_ RTR  --- 0 AODV 48 [0 0 0 0] ------- [2:255 -1:255 30 0] [0x2 1 1 [7 0] [2 4]] (REQUEST)
s 0.010000000 _3_ RTR  --- 0 AODV 48 [0 0 0 0] ------- [3:255 -1:255 30 0] [0x2 1 1 [6 0] [3 4]] (REQUEST)
s 0.010000000 _4_ RTR  --- 0 AODV 48 [0 0 0 0] ------- [4:255 -1:255 30 0] [0x2 1 1 [5 0] [4 4]] (REQUEST)
r 0.010948308 _5_ RTR  --- 0 AODV 48 [0 ffffffff 0 800] ------- [0:255 -1:255 30 0] [0x2 1 1 [9 0] [0 4]] (REQUEST)
r 0.012412115 _8_ RTR  --- 0 AODV 48 [0 ffffffff 2 800] ------- [2:255 -1:255 30 0] [0x2 1 1 [7 0] [2 4]] (REQUEST)
s 0.018812792 _8_ RTR  --- 0 AODV 48 [0 ffffffff 2 800] ------- [8:255 -1:255 29 0] [0x2 2 1 [7 0] [2 4]] (REQUEST)
s 0.019311543 _5_ RTR  --- 0 AODV 48 [0 ffffffff 0 800] ------- [5:255 -1:255 29 0] [0x2 2 1 [9 0] [0 4]] (REQUEST)
r 0.019921080 _7_ RTR  --- 0 AODV 48 [0 ffffffff 8 800] ------- [8:255 -1:255 29 0] [0x2 2 1 [7 0] [2 4]] (REQUEST)
s 0.019921080 _7_ RTR  --- 0 AODV 44 [0 0 0 0] ------- [7:255 2:255 30 8] [0x4 1 [7 4] 10.000000] (REPLY)
r 0.019921514 _2_ RTR  --- 0 AODV 48 [0 ffffffff 8 800] ------- [8:255 -1:255 29 0] [0x2 2 1 [7 0] [2 4]] (REQUEST)
r 0.024526095 _8_ RTR  --- 0 AODV 44 [13a 8 7 800] ------- [7:255 2:255 30 8] [0x4 1 [7 4] 10.000000] (REPLY)
f 0.024526095 _8_ RTR  --- 0 AODV 44 [13a 8 7 800] ------- [7:255 2:255 29 2] [0x4 2 [7 4] 10.000000] (REPLY)
r 0.030078151 _2_ RTR  --- 0 AODV 44 [13a 2 8 800] ------- [7:255 2:255 29 2] [0x4 2 [7 4] 10.000000] (REPLY)
s 0.030078151 _2_ RTR  --- 2 tcp 40 [0 0 0 0] ------- [2:0 7:0 30 8] [0 0] 0 0
r 0.032064318 _8_ RTR  --- 2 tcp 40 [13a 8 2 800] ------- [2:0 7:0 30 8] [0 0] 1 0
f 0.032064318 _8_ RTR  --- 2 tcp 40 [13a 8 2 800] ------- [2:0 7:0 29 7] [0 0] 1 0
r 0.034109182 _7_ AGT  --- 2 tcp 40 [13a 7 8 800] ------- [2:0 7:0 29 7] [0 0] 2 0
s 0.034109182 _7_ AGT  --- 5 ack 40 [0 0 0 0] ------- [7:0 2:0 32 0] [0 0] 0 0
r 0.034109182 _7_ RTR  --- 5 ack 40 [0 0 0 0] ------- [7:0 2:0 32 0] [0 0] 0 0
s 0.034109182 _7_ RTR  --- 5 ack 40 [0 0 0 0] ------- [7:0 2:0 30 8] [0 0] 0 0
r 0.036234046 _8_ RTR  --- 5 ack 40 [13a 8 7 800] ------- [7:0 2:0 30 8] [0 0] 1 0
f 0.036234046 _8_ RTR  --- 5 ack 40 [13a 8 7 800] ------- [7:0 2:0 29 2] [0 0] 1 0
r 0.038120213 _2_ AGT  --- 5 ack 40 [13a 2 8 800] ------- [7:0 2:0 29 2] [0 0] 2 0
s 0.038120213 _2_ AGT  --- 6 tcp 1540 [0 0 0 0] ------- [2:0 7:0 32 0] [1 0] 0 0
r 0.038120213 _2_ RTR  --- 6 tcp 1540 [0 0 0 0] ------- [2:0 7:0 32 0] [1 0] 0 0
s 0.038120213 _2_ AGT  --- 7 tcp 1540 [0 0 0 0] ------- [2:0 7:0 32 0] [2 0] 0 0
r 0.038120213 _2_ RTR  --- 7 tcp 1540 [0 0 0 0] ------- [2:0 7:0 32 0] [2 0] 0 0
s 0.038120213 _2_ RTR  --- 6 tcp 1540 [0 0 0 0] ------- [2:0 7:0 30 8] [1 0] 0 0
s 0.038120213 _2_ RTR  --- 7 tcp 1540 [0 0 0 0] ------- [2:0 7:0 30 8] [2 0] 0 0
r 0.052026380 _8_ RTR  --- 6 tcp 1540 [13a 8 2 800] ------- [2:0 7:0 30 8] [1 0] 1 0
f 0.052026380 _8_ RTR  --- 6 tcp 1540 [13a 8 2 800] ------- [2:0 7:0 29 7] [1 0] 1 0
r 0.066053269 _8_ RTR  --- 7 tcp 1540 [13a 8 2 800] ------- [2:0 7:0 30 8] [2 0] 1 0
f 0.066053269 _8_ RTR  --- 7 tcp 1540 [13a 8 2 800] ------- [2:0 7:0 29 7] [2 0] 1 0
r 0.079898133 _7_ AGT  --- 6 tcp 1540 [13a 7 8 800] ------- [2:0 7:0 29 7] [1 0] 2 0
s 0.079898133 _7_ AGT  --- 8 ack 40 [0 0 0 0] ------- [7:0 2:0 32 0] [1 0] 0 0
r 0.079898133 _7_ RTR  --- 8 ack 40 [0 0 0 0] ------- [7:0 2:0 32 0] [1 0] 0 0
s 0.079898133 _7_ RTR  --- 8 ack 40 [0 0 0 0] ------- [7:0 2:0 30 8] [1 0] 0 0
r 0.093943284 _7_ AGT  --- 7 tcp 1540 [13a 7 8 800] ------- [2:0 7:0 29 7] [2 0] 2 0
s 0.093943284 _7_ AGT  --- 9 ack 40 [0 0 0 0] ------- [7:0 2:0 32 0] [2 0] 0 0
r 0.093943284 _7_ RTR  --- 9 ack 40 [0 0 0 0] ------- [7:0 2:0 32 0] [2 0] 0 0
s 0.093943284 _7_ RTR  --- 9 ack 40 [0 0 0 0] ------- [7:0 2:0 30 8] [2 0] 0 0
r 0.096068148 _8_ RTR  --- 8 ack 40 [13a 8 7 800] ------- [7:0 2:0 30 8] [1 0] 1 0
f 0.096068148 _8_ RTR  --- 8 ack 40 [13a 8 7 800] ------- [7:0 2:0 29 2] [1 0] 1 0
r 0.097953300 _8_ RTR  --- 9 ack 40 [13a 8 7 800] ------- [7:0 2:0 30 8] [2 0] 1 0
f 0.097953300 _8_ RTR  --- 9 ack 40 [13a 8 7 800] ------- [7:0 2:0 29 2] [2 0] 1 0
r 0.100299467 _2_ AGT  --- 8 ack 40 [13a 2 8 800] ------- [7:0 2:0 29 2] [1 0] 2 0
s 0.100299467 _2_ AGT  --- 10 tcp 1540 [0 0 0 0] ------- [2:0 7:0 32 0] [3 0] 0 0
r 0.100299467 _2_ RTR  --- 10 tcp 1540 [0 0 0 0] ------- [2:0 7:0 32 0] [3 0] 0 0
s 0.100299467 _2_ AGT  --- 11 tcp 1540 [0 0 0 0] ------- [2:0 7:0 32 0] [4 0] 0 0
r 0.100299467 _2_ RTR  --- 11 tcp 1540 [0 0 0 0] ------- [2:0 7:0 32 0] [4 0] 0 0
s 0.100299467 _2_ RTR  --- 10 tcp 1540 [0 0 0 0] ------- [2:0 7:0 30 8] [3 0] 0 0
s 0.100299467 _2_ RTR  --- 11 tcp 1540 [0 0 0 0] ------- [2:0 7:0 30 8] [4 0] 0 0
r 0.114465634 _8_ RTR  --- 10 tcp 1540 [13a 8 2 800] ------- [2:0 7:0 30 8] [3 0] 1 0
f 0.114465634 _8_ RTR  --- 10 tcp 1540 [13a 8 2 800] ------- [2:0 7:0 29 7] [3 0] 1 0
r 0.116451800 _2_ AGT  --- 9 ack 40 [13a 2 8 800] ------- [7:0 2:0 29 2] [2 0] 2 0
s 0.116451800 _2_ AGT  --- 12 tcp 1540 [0 0 0 0] ------- [2:0 7:0 32 0] [5 0] 0 0
r 0.116451800 _2_ RTR  --- 12 tcp 1540 [0 0 0 0] ------- [2:0 7:0 32 0] [5 0] 0 0
s 0.116451800 _2_ AGT  --- 13 tcp 1540 [0 0 0 0] ------- [2:0 7:0 32 0] [6 0] 0 0
r 0.116451800 _2_ RTR  --- 13 tcp 1540 [0 0 0 0] ------- [2:0 7:0 32 0] [6 0] 0 0
s 0.116451800 _2_ RTR  --- 12 tcp 1540 [0 0 0 0] ------- [2:0 7:0 30 8] [5 0] 0 0
s 0.116451800 _2_ RTR  --- 13 tcp 1540 [0 0 0 0] ------- [2:0 7:0 30 8] [6 0] 0 0
r 0.130397967 _8_ RTR  --- 11 tcp 1540 [13a 8 2 800] ------- [2:0 7:0 30 8] [4 0] 1 0
f 0.130397967 _8_ RTR  --- 11 tcp 1540 [13a 8 2 800] ------- [2:0 7:0 29 7] [4 0] 1 0
r 0.144282831 _7_ AGT  --- 10 tcp 1540 [13a 7 8 800] ------- [2:0 7:0 29 7] [3 0] 2 0
s 0.144282831 _7_ AGT  --- 14 ack 40 [0 0 0 0] ------- [7:0 2:0 32 0] [3 0] 0 0
r 0.144282831 _7_ RTR  --- 14 ack 40 [0 0 0 0] ------- [7:0 2:0 32 0] [3 0] 0 0
s 0.144282831 _7_ RTR  --- 14 ack 40 [0 0 0 0] ------- [7:0 2:0 30 8] [3 0] 0 0
r 0.158107983 _7_ AGT  --- 11 tcp 1540 [13a 7 8 800] ------- [2:0 7:0 29 7] [4 0] 2 0
s 0.158107983 _7_ AGT  --- 15 ack 40 [0 0 0 0] ------- [7:0 2:0 32 0] [4 0] 0 0
r 0.158107983 _7_ RTR  --- 15 ack 40 [0 0 0 0] ------- [7:0 2:0 32 0] [4 0] 0 0
s 0.158107983 _7_ RTR  --- 15 ack 40 [0 0 0 0] ------- [7:0 2:0 30 8] [4 0] 0 0
r 0.159785744 _0_ RTR  --- 0 AODV 48 [0 ffffffff 5 800] ------- [5:255 -1:255 29 0] [0x2 2 1 [9 0] [0 4]] (REQUEST)
r 0.159786248 _6_ RTR  --- 0 AODV 48 [0 ffffffff 5 800] ------- [5:255 -1:255 29 0] [0x2 2 1 [9 0] [0 4]] (REQUEST)
r 0.161681753 _8_ RTR  --- 14 ack 40 [13a 8 7 800] ------- [7:0 2:0 30 8] [3 0] 1 0
f 0.161681753 _8_ RTR  --- 14 ack 40 [13a 8 7 800] ------- [7:0 2:0 29 2] [3 0] 1 0
r 0.163586905 _8_ RTR  --- 15 ack 40 [13a 8 7 800] ------- [7:0 2:0 30 8] [4 0] 1 0
f 0.163586905 _8_ RTR  --- 15 ack 40 [13a 8 7 800] ------- [7:0 2:0 29 2] [4 0] 1 0
s 0.165334645 _6_ RTR  --- 0 AODV 48 [0 ffffffff 5 800] ------- [6:255 -1:255 28 0] [0x2 3 1 [9 0] [0 4]] (REQUEST)
r 0.177543677 _8_ RTR  --- 12 tcp 1540 [13a 8 2 800] ------- [2:0 7:0 30 8] [5 0] 1 0
f 0.177543677 _8_ RTR  --- 12 tcp 1540 [13a 8 2 800] ------- [2:0 7:0 29 7] [5 0] 1 0
r 0.179389843 _2_ AGT  --- 14 ack 40 [13a 2 8 800] ------- [7:0 2:0 29 2] [3 0] 2 0
s 0.179389843 _2_ AGT  --- 16 tcp 1540 [0 0 0 0] ------- [2:0 7:0 32 0] [7 0] 0 0
r 0.179389843 _2_ RTR  --- 16 tcp 1540 [0 0 0 0] ------- [2:0 7:0 32 0] [7 0] 0 0
s 0.179389843 _2_ AGT  --- 17 tcp 1540 [0 0 0 0] ------- [2:0 7:0 32 0] [8 0] 0 0
r 0.179389843 _2_ RTR  --- 17 tcp 1540 [0 0 0 0] ------- [2:0 7:0 32 0] [8 0] 0 0
s 0.179389843 _2_ RTR  --- 16 tcp 1540 [0 0 0 0] ------- [2:0 7:0 30 8] [7 0] 0 0
s 0.179389843 _2_ RTR  --- 17 tcp 1540 [0 0 0 0] ------- [2:0 7:0 30 8] [8 0] 0 0
r 0.193456010 _8_ RTR  --- 13 tcp 1540 [13a 8 2 800] ------- [2:0 7:0 30 8] [6 0] 1 0
f 0.193456010 _8_ RTR  --- 13 tcp 1540 [13a 8 2 800] ------- [2:0 7:0 29 7] [6 0] 1 0
r 0.195342177 _2_ AGT  --- 15 ack 40 [13a 2 8 800] ------- [7:0 2:0 29 2] [4 0] 2 0
s 0.195342177 _2_ AGT  --- 18 tcp 1540 [0 0 0 0] ------- [2:0 7:0 32 0] [9 0] 0 0
r 0.195342177 _2_ RTR  --- 18 tcp 1540 [0 0 0 0] ------- [2:0 7:0 32 0] [9 0] 0 0
s 0.195342177 _2_ AGT  --- 19 tcp 1540 [0 0 0 0] ------- [2:0 7:0 32 0] [10 0] 0 0
r 0.195342177 _2_ RTR  --- 19 tcp 1540 [0 0 0 0] ------- [2:0 7:0 32 0] [10 0] 0 0
s 0.195342177 _2_ RTR  --- 18 tcp 1540 [0 0 0 0] ------- [2:0 7:0 30 8] [9 0] 0 0
s 0.195342177 _2_ RTR  --- 19 tcp 1540 [0 0 0 0] ------- [2:0 7:0 30 8] [10 0] 0 0
r 0.209187763 _7_ AGT  --- 12 tcp 1540 [13a 7 8 800] ------- [2:0 7:0 29 7] [5 0] 2 0
s 0.209187763 _7_ AGT  --- 20 ack 40 [0 0 0 0] ------- [7:0 2:0 32 0] [5 0] 0 0
r 0.209187763 _7_ RTR  --- 20 ack 40 [0 0 0 0] ------- [7:0 2:0 32 0] [5 0] 0 0
s 0.209187763 _7_ RTR  --- 20 ack 40 [0 0 0 0] ------- [7:0 2:0 30 8] [5 0] 0 0
r 0.211192627 _8_ RTR  --- 20 ack 40 [13a 8 7 800] ------- [7:0 2:0 30 8] [5 0] 1 0
f 0.211192627 _8_ RTR  --- 20 ack 40 [13a 8 7 800] ------- [7:0 2:0 29 2] [5 0] 1 0
r 0.225269399 _8_ RTR  --- 16 tcp 1540 [13a 8 2 800] ------- [2:0 7:0 30 8] [7 0] 1 0
f 0.225269399 _8_ RTR  --- 16 tcp 1540 [13a 8 2 800] ------- [2:0 7:0 29 7] [7 0] 1 0
r 0.239154262 _7_ AGT  --- 13 tcp 1540 [13a 7 8 800] ------- [2:0 7:0 29 7] [6 0] 2 0
s 0.239154262 _7_ AGT  --- 21 ack 40 [0 0 0 0] ------- [7:0 2:0 32 0] [6 0] 0 0
r 0.239154262 _7_ RTR  --- 21 ack 40 [0 0 0 0] ------- [7:0 2:0 32 0] [6 0] 0 0
s 0.239154262 _7_ RTR  --- 21 ack 40 [0 0 0 0] ------- [7:0 2:0 30 8] [6 0] 0 0
r 0.241020717 _2_ AGT  --- 20 ack 40 [13a 2 8 800] ------- [7:0 2:0 29 2] [5 0] 2 0
s 0.241020717 _2_ AGT  --- 22 tcp 1540 [0 0 0 0] ------- [2:0 7:0 32 0] [11 0] 0 0
r 0.241020717 _2_ RTR  --- 22 tcp 1540 [0 0 0 0] ------- [2:0 7:0 32 0] [11 0] 0 0
s 0.241020717 _2_ AGT  --- 23 tcp 1540 [0 0 0 0] ------- [2:0 7:0 32 0] [12 0] 0 0
r 0.241020717 _2_ RTR  --- 23 tcp 1540 [0 0 0 0] ------- [2:0 7:0 32 0] [12 0] 0 0
s 0.241020717 _2_ RTR  --- 22 tcp 1540 [0 0 0 0] ------- [2:0 7:0 30 8] [11 0] 0 0
s 0.241020717 _2_ RTR  --- 23 tcp 1540 [0 0 0 0] ------- [2:0 7:0 30 8] [12 0] 0 0
r 0.254906884 _8_ RTR  --- 17 tcp 1540 [13a 8 2 800] ------- [2:0 7:0 30 8] [8 0] 1 0
f 0.254906884 _8_ RTR  --- 17 tcp 1540 [13a 8 2 800] ------- [2:0 7:0 29 7] [8 0] 1 0
r 0.268853773 _8_ RTR  --- 18 tcp 1540 [13a 8 2 800] ------- [2:0 7:0 30 8] [9 0] 1 0
f 0.268853773 _8_ RTR  --- 18 tcp 1540 [13a 8 2 800] ------- [2:0 7:0 29 7] [9 0] 1 0
r 0.282880662 _8_ RTR  --- 19 tcp 1540 [13a 8 2 800] ------- [2:0 7:0 30 8] [10 0] 1 0
f 0.282880662 _8_ RTR  --- 19 tcp 1540 [13a 8 2 800] ------- [2:0 7:0 29 7] [10 0] 1 0
r 0.296785526 _7_ AGT  --- 16 tcp 1540 [13a 7 8 800] ------- [2:0 7:0 29 7] [7 0] 2 0
s 0.296785526 _7_ AGT  --- 24 ack 40 [0 0 0 0] ------- [7:0 2:0 32 0] [7 0] 0 0
r 0.296785526 _7_ RTR  --- 24 ack 40 [0 0 0 0] ------- [7:0 2:0 32 0] [7 0] 0 0
s 0.296785526 _7_ RTR  --- 24 ack 40 [0 0 0 0] ------- [7:0 2:0 30 8] [7 0] 0 0
r 0.298650390 _8_ RTR  --- 21 ack 40 [13a 8 7 800] ------- [7:0 2:0 30 8] [6 0] 1 0
f 0.298650390 _8_ RTR  --- 21 ack 40 [13a 8 7 800] ------- [7:0 2:0 29 2] [6 0] 1 0
r 0.312535254 _7_ AGT  --- 17 tcp 1540 [13a 7 8 800] ------- [2:0 7:0 29 7] [8 0] 2 0
s 0.312535254 _7_ AGT  --- 25 ack 40 [0 0 0 0] ------- [7:0 2:0 32 0] [8 0] 0 0
r 0.312535254 _7_ RTR  --- 25 ack 40 [0 0 0 0] ------- [7:0 2:0 32 0] [8 0] 0 0
s 0.312535254 _7_ RTR  --- 25 ack 40 [0 0 0 0] ------- [7:0 2:0 30 8] [8 0] 0 0
r 0.314715756 _5_ RTR  --- 0 AODV 48 [0 ffffffff 6 800] ------- [6:255 -1:255 28 0] [0x2 3 1 [9 0] [0 4]] (REQUEST)
r 0.328612076 _8_ RTR  --- 22 tcp 1540 [13a 8 2 800] ------- [2:0 7:0 30 8] [11 0] 1 0
f 0.328612076 _8_ RTR  --- 22 tcp 1540 [13a 8 2 800] ------- [2:0 7:0 29 7] [11 0] 1 0
r 0.342558965 _8_ RTR  --- 23 tcp 1540 [13a 8 2 800] ------- [2:0 7:0 30 8] [12 0] 1 0
f 0.342558965 _8_ RTR  --- 23 tcp 1540 [13a 8 2 800] ------- [2:0 7:0 29 7] [12 0] 1 0
r 0.356823829 _7_ AGT  --- 18 tcp 1540 [13a 7 8 800] ------- [2:0 7:0 29 7] [9 0] 2 0
s 0.356823829 _7_ AGT  --- 26 ack 40 [0 0 0 0] ------- [7:0 2:0 32 0] [9 0] 0 0
r 0.356823829 _7_ RTR  --- 26 ack 40 [0 0 0 0] ------- [7:0 2:0 32 0] [9 0] 0 0
s 0.356823829 _7_ RTR  --- 26 ack 40 [0 0 0 0] ------- [7:0 2:0 30 8] [9 0] 0 0
r 0.358868693 _8_ RTR  --- 24 ack 40 [13a 8 7 800] ------- [7:0 2:0 30 8] [7 0] 1 0
f 0.358868693 _8_ RTR  --- 24 ack 40 [13a 8 7 800] ------- [7:0 2:0 29 2] [7 0] 1 0
r 0.360813845 _8_ RTR  --- 25 ack 40 [13a 8 7 800] ------- [7:0 2:0 30 8] [8 0] 1 0
f 0.360813845 _8_ RTR  --- 25 ack 40 [13a 8 7 800] ------- [7:0 2:0 29 2] [8 0] 1 0
r 0.374898708 _7_ AGT  --- 19 tcp 1540 [13a 7 8 800] ------- [2:0 7:0 29 7] [10 0] 2 0
s 0.374898708 _7_ AGT  --- 27 ack 40 [0 0 0 0] ------- [7:0 2:0 32 0] [10 0] 0 0
r 0.374898708 _7_ RTR  --- 27 ack 40 [0 0 0 0] ------- [7:0 2:0 32 0] [10 0] 0 0
s 0.374898708 _7_ RTR  --- 27 ack 40 [0 0 0 0] ------- [7:0 2:0 30 8] [10 0] 0 0
r 0.377083572 _8_ RTR  --- 26 ack 40 [13a 8 7 800] ------- [7:0 2:0 30 8] [9 0] 1 0
f 0.377083572 _8_ RTR  --- 26 ack 40 [13a 8 7 800] ------- [7:0 2:0 29 2] [9 0] 1 0
r 0.378989739 _2_ AGT  --- 21 ack 40 [13a 2 8 800] ------- [7:0 2:0 29 2] [6 0] 2 0
s 0.378989739 _2_ AGT  --- 28 tcp 1540 [0 0 0 0] ------- [2:0 7:0 32 0] [13 0] 0 0
r 0.378989739 _2_ RTR  --- 28 tcp 1540 [0 0 0 0] ------- [2:0 7:0 32 0] [13 0] 0 0
s 0.378989739 _2_ AGT  --- 29 tcp 1540 [0 0 0 0] ------- [2:0 7:0 32 0] [14 0] 0 0
r 0.378989739 _2_ RTR  --- 29 tcp 1540 [0 0 0 0] ------- [2:0 7:0 32 0] [14 0] 0 0
s 0.378989739 _2_ RTR  --- 28 tcp 1540 [0 0 0 0] ------- [2:0 7:0 30 8] [13 0] 0 0
s 0.378989739 _2_ RTR  --- 29 tcp 1540 [0 0 0 0] ------- [2:0 7:0 30 8] [14 0] 0 0
r 0.394201325 _7_ AGT  --- 22 tcp 1540 [13a 7 8 800] ------- [2:0 7:0 29 7] [11 0] 2 0
s 0.394201325 _7_ AGT  --- 30 ack 40 [0 0 0 0] ------- [7:0 2:0 32 0] [11 0] 0 0
r 0.394201325 _7_ RTR  --- 30 ack 40 [0 0 0 0] ------- [7:0 2:0 32 0] [11 0] 0 0
s 0.394201325 _7_ RTR  --- 30 ack 40 [0 0 0 0] ------- [7:0 2:0 30 8] [11 0] 0 0
r 0.408066477 _7_ AGT  --- 23 tcp 1540 [13a 7 8 800] ------- [2:0 7:0 29 7] [12 0] 2 0
s 0.408066477 _7_ AGT  --- 31 ack 40 [0 0 0 0] ------- [7:0 2:0 32 0] [12 0] 0 0
r 0.408066477 _7_ RTR  --- 31 ack 40 [0 0 0 0] ------- [7:0 2:0 32 0] [12 0] 0 0
s 0.408066477 _7_ RTR  --- 31 ack 40 [0 0 0 0] ------- [7:0 2:0 30 8] [12 0] 0 0
r 0.410011341 _8_ RTR  --- 27 ack 40 [13a 8 7 800] ------- [7:0 2:0 30 8] [10 0] 1 0
f 0.410011341 _8_ RTR  --- 27 ack 40 [13a 8 7 800] ------- [7:0 2:0 29 2] [10 0] 1 0
r 0.412056492 _8_ RTR  --- 30 ack 40 [13a 8 7 800] ------- [7:0 2:0 30 8] [11 0] 1 0
f 0.412056492 _8_ RTR  --- 30 ack 40 [13a 8 7 800] ------- [7:0 2:0 29 2] [11 0] 1 0
r 0.414061644 _8_ RTR  --- 31 ack 40 [13a 8 7 800] ------- [7:0 2:0 30 8] [12 0] 1 0
f 0.414061644 _8_ RTR  --- 31 ack 40 [13a 8 7 800] ------- [7:0 2:0 29 2] [12 0] 1 0
r 0.415947811 _2_ AGT  --- 24 ack 40 [13a 2 8 800] ------- [7:0 2:0 29 2] [7 0] 2 0
s 0.415947811 _2_ AGT  --- 32 tcp 1540 [0 0 0 0] ------- [2:0 7:0 32 0] [15 0] 0 0
r 0.415947811 _2_ RTR  --- 32 tcp 1540 [0 0 0 0] ------- [2:0 7:0 32 0] [15 0] 0 0
s 0.415947811 _2_ AGT  --- 33 tcp 1540 [0 0 0 0] ------- [2:0 7:0 32 0] [16 0] 0 0
r 0.415947811 _2_ RTR  --- 33 tcp 1540 [0 0 0 0] ------- [2:0 7:0 32 0] [16 0] 0 0
s 0.415947811 _2_ RTR  --- 32 tcp 1540 [0 0 0 0] ------- [2:0 7:0 30 8] [15 0] 0 0
s 0.415947811 _2_ RTR  --- 33 tcp 1540 [0 0 0 0] ------- [2:0 7:0 30 8] [16 0] 0 0
r 0.429873978 _8_ RTR  --- 28 tcp 1540 [13a 8 2 800] ------- [2:0 7:0 30 8] [13 0] 1 0
f 0.429873978 _8_ RTR  --- 28 tcp 1540 [13a 8 2 800] ------- [2:0 7:0 29 7] [13 0] 1 0
r 0.432060145 _2_ AGT  --- 25 ack 40 [13a 2 8 800] ------- [7:0 2:0 29 2] [8 0] 2 0
s 0.432060145 _2_ AGT  --- 34 tcp 1540 [0 0 0 0] ------- [2:0 7:0 32 0] [17 0] 0 0
r 0.432060145 _2_ RTR  --- 34 tcp 1540 [0 0 0 0] ------- [2:0 7:0 32 0] [17 0] 0 0
s 0.432060145 _2_ AGT  --- 35 tcp 1540 [0 0 0 0] ------- [2:0 7:0 32 0] [18 0] 0 0
r 0.432060145 _2_ RTR  --- 35 tcp 1540 [0 0 0 0] ------- [2:0 7:0 32 0] [18 0] 0 0
s 0.432060145 _2_ RTR  --- 34 tcp 1540 [0 0 0 0] ------- [2:0 7:0 30 8] [17 0] 0 0
s 0.432060145 _2_ RTR  --- 35 tcp 1540 [0 0 0 0] ------- [2:0 7:0 30 8] [18 0] 0 0
r 0.445926311 _8_ RTR  --- 29 tcp 1540 [13a 8 2 800] ------- [2:0 7:0 30 8] [14 0] 1 0
f 0.445926311 _8_ RTR  --- 29 tcp 1540 [13a 8 2 800] ------- [2:0 7:0 29 7] [14 0] 1 0
r 0.447852478 _2_ AGT  --- 26 ack 40 [13a 2 8 800] ------- [7:0 2:0 29 2] [9 0] 2 0
s 0.447852478 _2_ AGT  --- 36 tcp 1540 [0 0 0 0] ------- [2:0 7:0 32 0] [19 0] 0 0
r 0.447852478 _2_ RTR  --- 36 tcp 1540 [0 0 0 0] ------- [2:0 7:0 32 0] [19 0] 0 0
s 0.447852478 _2_ AGT  --- 37 tcp 1540 [0 0 0 0] ------- [2:0 7:0 32 0] [20 0] 0 0
r 0.447852478 _2_ RTR  --- 37 tcp 1540 [0 0 0 0] ------- [2:0 7:0 32 0] [20 0] 0 0
s 0.447852478 _2_ RTR  --- 36 tcp 1540 [0 0 0 0] ------- [2:0 7:0 30 8] [19 0] 0 0
s 0.447852478 _2_ RTR  --- 37 tcp 1540 [0 0 0 0] ------- [2:0 7:0 30 8] [20 0] 0 0
r 0.461758645 _8_ RTR  --- 32 tcp 1540 [13a 8 2 800] ------- [2:0 7:0 30 8] [15 0] 1 0
f 0.461758645 _8_ RTR  --- 32 tcp 1540 [13a 8 2 800] ------- [2:0 7:0 29 7] [15 0] 1 0
r 0.475585534 _8_ RTR  --- 33 tcp 1540 [13a 8 2 800] ------- [2:0 7:0 30 8] [16 0] 1 0
f 0.475585534 _8_ RTR  --- 33 tcp 1540 [13a 8 2 800] ------- [2:0 7:0 29 7] [16 0] 1 0
r 0.478459146 _2_ AGT  --- 27 ack 40 [13a 2 8 800] ------- [7:0 2:0 29 2] [10 0] 2 0
s 0.478459146 _2_ AGT  --- 38 tcp 1540 [0 0 0 0] ------- [2:0 7:0 32 0] [21 0] 0 0
r 0.478459146 _2_ RTR  --- 38 tcp 1540 [0 0 0 0] ------- [2:0 7:0 32 0] [21 0] 0 0
s 0.478459146 _2_ AGT  --- 39 tcp 1540 [0 0 0 0] ------- [2:0 7:0 32 0] [22 0] 0 0
r 0.478459146 _2_ RTR  --- 39 tcp 1540 [0 0 0 0] ------- [2:0 7:0 32 0] [22 0] 0 0
s 0.478459146 _2_ RTR  --- 38 tcp 1540 [0 0 0 0] ------- [2:0 7:0 30 8] [21 0] 0 0
s 0.478459146 _2_ RTR  --- 39 tcp 1540 [0 0 0 0] ------- [2:0 7:0 30 8] [22 0] 0 0
r 0.480706035 _2_ AGT  --- 30 ack 40 [13a 2 8 800] ------- [7:0 2:0 29 2] [11 0] 2 0
s 0.480706035 _2_ AGT  --- 40 tcp 1540 [0 0 0 0] ------- [2:0 7:0 32 0] [23 0] 0 0
r 0.480706035 _2_ RTR  --- 40 tcp 1540 [0 0 0 0] ------- [2:0 7:0 32 0] [23 0] 0 0
s 0.480706035 _2_ AGT  --- 41 tcp 1540 [0 0 0 0] ------- [2:0 7:0 32 0] [24 0] 0 0
r 0.480706035 _2_ RTR  --- 41 tcp 1540 [0 0 0 0] ------- [2:0 7:0 32 0] [24 0] 0 0
s 0.480706035 _2_ RTR  --- 40 tcp 1540 [0 0 0 0] ------- [2:0 7:0 30 8] [23 0] 0 0
s 0.480706035 _2_ RTR  --- 41 tcp 1540 [0 0 0 0] ------- [2:0 7:0 30 8] [24 0] 0 0
r 0.494812202 _8_ RTR  --- 34 tcp 1540 [13a 8 2 800] ------- [2:0 7:0 30 8] [17 0] 1 0
f 0.494812202 _8_ RTR  --- 34 tcp 1540 [13a 8 2 800] ------- [2:0 7:0 29 7] [17 0] 1 0
r 0.496858369 _2_ AGT  --- 31 ack 40 [13a 2 8 800] ------- [7:0 2:0 29 2] [12 0] 2 0
s 0.496858369 _2_ AGT  --- 42 tcp 1540 [0 0 0 0] ------- [2:0 7:0 32 0] [25 0] 0 0
r 0.496858369 _2_ RTR  --- 42 tcp 1540 [0 0 0 0] ------- [2:0 7:0 32 0] [25 0] 0 0
s 0.496858369 _2_ AGT  --- 43 tcp 1540 [0 0 0 0] ------- [2:0 7:0 32 0] [26 0] 0 0
r 0.496858369 _2_ RTR  --- 43 tcp 1540 [0 0 0 0] ------- [2:0 7:0 32 0] [26 0] 0 0
s 0.496858369 _2_ RTR  --- 42 tcp 1540 [0 0 0 0] ------- [2:0 7:0 30 8] [25 0] 0 0
s 0.496858369 _2_ RTR  --- 43 tcp 1540 [0 0 0 0] ------- [2:0 7:0 30 8] [26 0] 0 0
r 0.510804536 _8_ RTR  --- 35 tcp 1540 [13a 8 2 800] ------- [2:0 7:0 30 8] [18 0] 1 0
f 0.510804536 _8_ RTR  --- 35 tcp 1540 [13a 8 2 800] ------- [2:0 7:0 29 7] [18 0] 1 0
r 0.524651425 _8_ RTR  --- 36 tcp 1540 [13a 8 2 800] ------- [2:0 7:0 30 8] [19 0] 1 0
f 0.524651425 _8_ RTR  --- 36 tcp 1540 [13a 8 2 800] ------- [2:0 7:0 29 7] [19 0] 1 0
r 0.538496289 _7_ AGT  --- 28 tcp 1540 [13a 7 8 800] ------- [2:0 7:0 29 7] [13 0] 2 0
s 0.538496289 _7_ AGT  --- 44 ack 40 [0 0 0 0] ------- [7:0 2:0 32 0] [13 0] 0 0
r 0.538496289 _7_ RTR  --- 44 ack 40 [0 0 0 0] ------- [7:0 2:0 32 0] [13 0] 0 0
s 0.538496289 _7_ RTR  --- 44 ack 40 [0 0 0 0] ------- [7:0 2:0 30 8] [13 0] 0 0
r 0.552321440 _7_ AGT  --- 29 tcp 1540 [13a 7 8 800] ------- [2:0 7:0 29 7] [14 0] 2 0
s 0.552321440 _7_ AGT  --- 45 ack 40 [0 0 0 0] ------- [7:0 2:0 32 0] [14 0] 0 0
r 0.552321440 _7_ RTR  --- 45 ack 40 [0 0 0 0] ------- [7:0 2:0 32 0] [14 0] 0 0
s 0.552321440 _7_ RTR  --- 45 ack 40 [0 0 0 0] ------- [7:0 2:0 30 8] [14 0] 0 0
r 0.566206592 _7_ AGT  --- 32 tcp 1540 [13a 7 8 800] ------- [2:0 7:0 29 7] [15 0] 2 0
s 0.566206592 _7_ AGT  --- 46 ack 40 [0 0 0 0] ------- [7:0 2:0 32 0] [15 0] 0 0
r 0.566206592 _7_ RTR  --- 46 ack 40 [0 0 0 0] ------- [7:0 2:0 32 0] [15 0] 0 0
s 0.566206592 _7_ RTR  --- 46 ack 40 [0 0 0 0] ------- [7:0 2:0 30 8] [15 0] 0 0
r 0.568071456 _8_ RTR  --- 44 ack 40 [13a 8 7 800] ------- [7:0 2:0 30 8] [13 0] 1 0
f 0.568071456 _8_ RTR  --- 44 ack 40 [13a 8 7 800] ------- [7:0 2:0 29 2] [13 0] 1 0
r 0.582188227 _8_ RTR  --- 37 tcp 1540 [13a 8 2 800] ------- [2:0 7:0 30 8] [20 0] 1 0
f 0.582188227 _8_ RTR  --- 37 tcp 1540 [13a 8 2 800] ------- [2:0 7:0 29 7] [20 0] 1 0
r 0.596213091 _7_ AGT  --- 33 tcp 1540 [13a 7 8 800] ------- [2:0 7:0 29 7] [16 0] 2 0
s 0.596213091 _7_ AGT  --- 47 ack 40 [0 0 0 0] ------- [7:0 2:0 32 0] [16 0] 0 0
r 0.596213091 _7_ RTR  --- 47 ack 40 [0 0 0 0] ------- [7:0 2:0 32 0] [16 0] 0 0
s 0.596213091 _7_ RTR  --- 47 ack 40 [0 0 0 0] ------- [7:0 2:0 30 8] [16 0] 0 0
r 0.610058243 _7_ AGT  --- 34 tcp 1540 [13a 7 8 800] ------- [2:0 7:0 29 7] [17 0] 2 0
s 0.610058243 _7_ AGT  --- 48 ack 40 [0 0 0 0] ------- [7:0 2:0 32 0] [17 0] 0 0
r 0.610058243 _7_ RTR  --- 48 ack 40 [0 0 0 0] ------- [7:0 2:0 32 0] [17 0] 0 0
s 0.610058243 _7_ RTR  --- 48 ack 40 [0 0 0 0] ------- [7:0 2:0 30 8] [17 0] 0 0
r 0.623903395 _7_ AGT  --- 35 tcp 1540 [13a 7 8 800] ------- [2:0 7:0 29 7] [18 0] 2 0
s 0.623903395 _7_ AGT  --- 49 ack 40 [0 0 0 0] ------- [7:0 2:0 32 0] [18 0] 0 0
r 0.623903395 _7_ RTR  --- 49 ack 40 [0 0 0 0] ------- [7:0 2:0 32 0] [18 0] 0 0
s 0.623903395 _7_ RTR  --- 49 ack 40 [0 0 0 0] ------- [7:0 2:0 30 8] [18 0] 0 0
r 0.637788546 _7_ AGT  --- 36 tcp 1540 [13a 7 8 800] ------- [2:0 7:0 29 7] [19 0] 2 0
s 0.637788546 _7_ AGT  --- 50 ack 40 [0 0 0 0] ------- [7:0 2:0 32 0] [19 0] 0 0
r 0.637788546 _7_ RTR  --- 50 ack 40 [0 0 0 0] ------- [7:0 2:0 32 0] [19 0] 0 0
s 0.637788546 _7_ RTR  --- 50 ack 40 [0 0 0 0] ------- [7:0 2:0 30 8] [19 0] 0 0
r 0.639693410 _8_ RTR  --- 45 ack 40 [13a 8 7 800] ------- [7:0 2:0 30 8] [14 0] 1 0
f 0.639693410 _8_ RTR  --- 45 ack 40 [13a 8 7 800] ------- [7:0 2:0 29 2] [14 0] 1 0
r 0.641538562 _8_ RTR  --- 46 ack 40 [13a 8 7 800] ------- [7:0 2:0 30 8] [15 0] 1 0
f 0.641538562 _8_ RTR  --- 46 ack 40 [13a 8 7 800] ------- [7:0 2:0 29 2] [15 0] 1 0
r 0.643383713 _8_ RTR  --- 47 ack 40 [13a 8 7 800] ------- [7:0 2:0 30 8] [16 0] 1 0
f 0.643383713 _8_ RTR  --- 47 ack 40 [13a 8 7 800] ------- [7:0 2:0 29 2] [16 0] 1 0
r 0.645369880 _2_ AGT  --- 44 ack 40 [13a 2 8 800] ------- [7:0 2:0 29 2] [13 0] 2 0
s 0.645369880 _2_ AGT  --- 51 tcp 1540 [0 0 0 0] ------- [2:0 7:0 32 0] [27 0] 0 0
r 0.645369880 _2_ RTR  --- 51 tcp 1540 [0 0 0 0] ------- [2:0 7:0 32 0] [27 0] 0 0
s 0.645369880 _2_ AGT  --- 52 tcp 1540 [0 0 0 0] ------- [2:0 7:0 32 0] [28 0] 0 0
r 0.645369880 _2_ RTR  --- 52 tcp 1540 [0 0 0 0] ------- [2:0 7:0 32 0] [28 0] 0 0
s 0.645369880 _2_ RTR  --- 51 tcp 1540 [0 0 0 0] ------- [2:0 7:0 30 8] [27 0] 0 0
s 0.645369880 _2_ RTR  --- 52 tcp 1540 [0 0 0 0] ------- [2:0 7:0 30 8] [28 0] 0 0
r 0.659336047 _8_ RTR  --- 38 tcp 1540 [13a 8 2 800] ------- [2:0 7:0 30 8] [21 0] 1 0
f 0.659336047 _8_ RTR  --- 38 tcp 1540 [13a 8 2 800] ------- [2:0 7:0 29 7] [21 0] 1 0
r 0.661431081 _8_ RTR  --- 48 ack 40 [13a 8 7 800] ------- [7:0 2:0 30 8] [17 0] 1 0
f 0.661431081 _8_ RTR  --- 48 ack 40 [13a 8 7 800] ------- [7:0 2:0 29 2] [17 0] 1 0
r 0.675295945 _7_ AGT  --- 37 tcp 1540 [13a 7 8 800] ------- [2:0 7:0 29 7] [20 0] 2 0
s 0.675295945 _7_ AGT  --- 53 ack 40 [0 0 0 0] ------- [7:0 2:0 32 0] [20 0] 0 0
r 0.675295945 _7_ RTR  --- 53 ack 40 [0 0 0 0] ------- [7:0 2:0 32 0] [20 0] 0 0
s 0.675295945 _7_ RTR  --- 53 ack 40 [0 0 0 0] ------- [7:0 2:0 30 8] [20 0] 0 0
r 0.677442400 _2_ AGT  --- 45 ack 40 [13a 2 8 800] ------- [7:0 2:0 29 2] [14 0] 2 0
s 0.677442400 _2_ AGT  --- 54 tcp 1540 [0 0 0 0] ------- [2:0 7:0 32 0] [29 0] 0 0
r 0.677442400 _2_ RTR  --- 54 tcp 1540 [0 0 0 0] ------- [2:0 7:0 32 0] [29 0] 0 0
s 0.677442400 _2_ AGT  --- 55 tcp 1540 [0 0 0 0] ------- [2:0 7:0 32 0] [30 0] 0 0
r 0.677442400 _2_ RTR  --- 55 tcp 1540 [0 0 0 0] ------- [2:0 7:0 32 0] [30 0] 0 0
s 0.677442400 _2_ RTR  --- 54 tcp 1540 [0 0 0 0] ------- [2:0 7:0 30 8] [29 0] 0 0
s 0.677442400 _2_ RTR  --- 55 tcp 1540 [0 0 0 0] ------- [2:0 7:0 30 8] [30 0] 0 0
r 0.691388567 _8_ RTR  --- 39 tcp 1540 [13a 8 2 800] ------- [2:0 7:0 30 8] [22 0] 1 0
f 0.691388567 _8_ RTR  --- 39 tcp 1540 [13a 8 2 800] ------- [2:0 7:0 29 7] [22 0] 1 0
r 0.693274733 _2_ AGT  --- 46 ack 40 [13a 2 8 800] ------- [7:0 2:0 29 2] [15 0] 2 0
s 0.693274733 _2_ AGT  --- 56 tcp 1540 [0 0 0 0] ------- [2:0 7:0 32 0] [31 0] 0 0
r 0.693274733 _2_ RTR  --- 56 tcp 1540 [0 0 0 0] ------- [2:0 7:0 32 0] [31 0] 0 0
s 0.693274733 _2_ AGT  --- 57 tcp 1540 [0 0 0 0] ------- [2:0 7:0 32 0] [32 0] 0 0
r 0.693274733 _2_ RTR  --- 57 tcp 1540 [0 0 0 0] ------- [2:0 7:0 32 0] [32 0] 0 0
s 0.693274733 _2_ RTR  --- 56 tcp 1540 [0 0 0 0] ------- [2:0 7:0 30 8] [31 0] 0 0
s 0.693274733 _2_ RTR  --- 57 tcp 1540 [0 0 0 0] ------- [2:0 7:0 30 8] [32 0] 0 0
r 0.695281623 _2_ AGT  --- 47 ack 40 [13a 2 8 800] ------- [7:0 2:0 29 2] [16 0] 2 0
s 0.695281623 _2_ AGT  --- 58 tcp 1540 [0 0 0 0] ------- [2:0 7:0 32 0] [33 0] 0 0
r 0.695281623 _2_ RTR  --- 58 tcp 1540 [0 0 0 0] ------- [2:0 7:0 32 0] [33 0] 0 0
s 0.695281623 _2_ AGT  --- 59 tcp 1540 [0 0 0 0] ------- [2:0 7:0 32 0] [34 0] 0 0
r 0.695281623 _2_ RTR  --- 59 tcp 1540 [0 0 0 0] ------- [2:0 7:0 32 0] [34 0] 0 0
s 0.695281623 _2_ RTR  --- 58 tcp 1540 [0 0 0 0] ------- [2:0 7:0 30 8] [33 0] 0 0
s 0.695281623 _2_ RTR  --- 59 tcp 1540 [0 0 0 0] ------- [2:0 7:0 30 8] [34 0] 0 0
r 0.709247209 _7_ AGT  --- 38 tcp 1540 [13a 7 8 800] ------- [2:0 7:0 29 7] [21 0] 2 0
s 0.709247209 _7_ AGT  --- 60 ack 40 [0 0 0 0] ------- [7:0 2:0 32 0] [21 0] 0 0
r 0.709247209 _7_ RTR  --- 60 ack 40 [0 0 0 0] ------- [7:0 2:0 32 0] [21 0] 0 0
s 0.709247209 _7_ RTR  --- 60 ack 40 [0 0 0 0] ------- [7:0 2:0 30 8] [21 0] 0 0
r 0.711192072 _8_ RTR  --- 49 ack 40 [13a 8 7 800] ------- [7:0 2:0 30 8] [18 0] 1 0
f 0.711192072 _8_ RTR  --- 49 ack 40 [13a 8 7 800] ------- [7:0 2:0 29 2] [18 0] 1 0
r 0.713017224 _8_ RTR  --- 50 ack 40 [13a 8 7 800] ------- [7:0 2:0 30 8] [19 0] 1 0
f 0.713017224 _8_ RTR  --- 50 ack 40 [13a 8 7 800] ------- [7:0 2:0 29 2] [19 0] 1 0
r 0.714942376 _8_ RTR  --- 53 ack 40 [13a 8 7 800] ------- [7:0 2:0 30 8] [20 0] 1 0
f 0.714942376 _8_ RTR  --- 53 ack 40 [13a 8 7 800] ------- [7:0 2:0 29 2] [20 0] 1 0
r 0.716767528 _8_ RTR  --- 60 ack 40 [13a 8 7 800] ------- [7:0 2:0 30 8] [21 0] 1 0
f 0.716767528 _8_ RTR  --- 60 ack 40 [13a 8 7 800] ------- [7:0 2:0 29 2] [21 0] 1 0
r 0.718613694 _2_ AGT  --- 48 ack 40 [13a 2 8 800] ------- [7:0 2:0 29 2] [17 0] 2 0
s 0.718613694 _2_ AGT  --- 61 tcp 1540 [0 0 0 0] ------- [2:0 7:0 32 0] [35 0] 0 0
r 0.718613694 _2_ RTR  --- 61 tcp 1540 [0 0 0 0] ------- [2:0 7:0 32 0] [35 0] 0 0
s 0.718613694 _2_ AGT  --- 62 tcp 1540 [0 0 0 0] ------- [2:0 7:0 32 0] [36 0] 0 0
r 0.718613694 _2_ RTR  --- 62 tcp 1540 [0 0 0 0] ------- [2:0 7:0 32 0] [36 0] 0 0
s 0.718613694 _2_ RTR  --- 61 tcp 1540 [0 0 0 0] ------- [2:0 7:0 30 8] [35 0] 0 0
s 0.718613694 _2_ RTR  --- 62 tcp 1540 [0 0 0 0] ------- [2:0 7:0 30 8] [36 0] 0 0
r 0.732559861 _8_ RTR  --- 40 tcp 1540 [13a 8 2 800] ------- [2:0 7:0 30 8] [23 0] 1 0
f 0.732559861 _8_ RTR  --- 40 tcp 1540 [13a 8 2 800] ------- [2:0 7:0 29 7] [23 0] 1 0
r 0.746824725 _7_ AGT  --- 39 tcp 1540 [13a 7 8 800] ------- [2:0 7:0 29 7] [22 0] 2 0
s 0.746824725 _7_ AGT  --- 63 ack 40 [0 0 0 0] ------- [7:0 2:0 32 0] [22 0] 0 0
r 0.746824725 _7_ RTR  --- 63 ack 40 [0 0 0 0] ------- [7:0 2:0 32 0] [22 0] 0 0
s 0.746824725 _7_ RTR  --- 63 ack 40 [0 0 0 0] ------- [7:0 2:0 30 8] [22 0] 0 0
r 0.748789589 _8_ RTR  --- 63 ack 40 [13a 8 7 800] ------- [7:0 2:0 30 8] [22 0] 1 0
f 0.748789589 _8_ RTR  --- 63 ack 40 [13a 8 7 800] ------- [7:0 2:0 29 2] [22 0] 1 0
r 0.762826360 _8_ RTR  --- 41 tcp 1540 [13a 8 2 800] ------- [2:0 7:0 30 8] [24 0] 1 0
f 0.762826360 _8_ RTR  --- 41 tcp 1540 [13a 8 2 800] ------- [2:0 7:0 29 7] [24 0] 1 0
r 0.764892527 _2_ AGT  --- 49 ack 40 [13a 2 8 800] ------- [7:0 2:0 29 2] [18 0] 2 0
s 0.764892527 _2_ AGT  --- 64 tcp 1540 [0 0 0 0] ------- [2:0 7:0 32 0] [37 0] 0 0
r 0.764892527 _2_ RTR  --- 64 tcp 1540 [0 0 0 0] ------- [2:0 7:0 32 0] [37 0] 0 0
s 0.764892527 _2_ AGT  --- 65 tcp 1540 [0 0 0 0] ------- [2:0 7:0 32 0] [38 0] 0 0
r 0.764892527 _2_ RTR  --- 65 tcp 1540 [0 0 0 0] ------- [2:0 7:0 32 0] [38 0] 0 0
s 0.764892527 _2_ RTR  --- 64 tcp 1540 [0 0 0 0] ------- [2:0 7:0 30 8] [37 0] 0 0
s 0.764892527 _2_ RTR  --- 65 tcp 1540 [0 0 0 0] ------- [2:0 7:0 30 8] [38 0] 0 0
r 0.766859416 _2_ AGT  --- 50 ack 40 [13a 2 8 800] ------- [7:0 2:0 29 2] [19 0] 2 0
s 0.766859416 _2_ AGT  --- 66 tcp 1540 [0 0 0 0] ------- [2:0 7:0 32 0] [39 0] 0 0