r 30.084874108 _5_ RTR  --- 1407 tcp 1540 [13a 5 3 800] ------- [3:0 6:0 30 5] [329 0] 1 0
f 30.084874108 _5_ RTR  --- 1407 tcp 1540 [13a 5 3 800] ------- [3:0 6:0 29 2] [329 0] 1 0
r 30.087080190 _3_ RTR  --- 1403 ack 40 [13a 3 5 800] ------- [9:0 0:0 29 3] [1 0] 2 0
f 30.087080190 _3_ RTR  --- 1403 ack 40 [13a 3 5 800] ------- [9:0 0:0 28 0] [1 0] 2 0
r 30.089246437 _0_ AGT  --- 1403 ack 40 [13a 0 3 800] ------- [9:0 0:0 28 0] [1 0] 3 0
s 30.089246437 _0_ AGT  --- 1408 tcp 1540 [0 0 0 0] ------- [0:0 9:0 32 0] [2 0] 0 0
r 30.089246437 _0_ RTR  --- 1408 tcp 1540 [0 0 0 0] ------- [0:0 9:0 32 0] [2 0] 0 0
s 30.089246437 _0_ AGT  --- 1409 tcp 1540 [0 0 0 0] ------- [0:0 9:0 32 0] [3 0] 0 0
r 30.089246437 _0_ RTR  --- 1409 tcp 1540 [0 0 0 0] ------- [0:0 9:0 32 0] [3 0] 0 0
s 30.089246437 _0_ RTR  --- 1408 tcp 1540 [0 0 0 0] ------- [0:0 9:0 30 3] [2 0] 0 0
s 30.089246437 _0_ RTR  --- 1409 tcp 1540 [0 0 0 0] ------- [0:0 9:0 30 3] [3 0] 0 0
r 30.103432684 _3_ RTR  --- 1408 tcp 1540 [13a 3 0 800] ------- [0:0 9:0 30 3] [2 0] 1 0
f 30.103432684 _3_ RTR  --- 1408 tcp 1540 [13a 3 0 800] ------- [0:0 9:0 29 5] [2 0] 1 0
r 30.117299681 _3_ RTR  --- 1409 tcp 1540 [13a 3 0 800] ------- [0:0 9:0 30 3] [3 0] 1 0
f 30.117299681 _3_ RTR  --- 1409 tcp 1540 [13a 3 0 800] ------- [0:0 9:0 29 5] [3 0] 1 0
r 30.131285763 _5_ RTR  --- 1408 tcp 1540 [13a 5 3 800] ------- [0:0 9:0 29 5] [2 0] 2 0
f 30.131285763 _5_ RTR  --- 1408 tcp 1540 [13a 5 3 800] ------- [0:0 9:0 28 9] [2 0] 2 0
r 30.147047592 _5_ RTR  --- 1409 tcp 1540 [13a 5 3 800] ------- [0:0 9:0 29 5] [3 0] 2 0
f 30.147047592 _5_ RTR  --- 1409 tcp 1540 [13a 5 3 800] ------- [0:0 9:0 28 9] [3 0] 2 0
r 30.149013675 _3_ AGT  --- 1400 ack 40 [13a 3 5 800] ------- [6:0 3:0 28 3] [325 0] 3 0
s 30.149013675 _3_ AGT  --- 1410 tcp 1540 [0 0 0 0] ------- [3:0 6:0 32 0] [330 0] 0 0
r 30.149013675 _3_ RTR  --- 1410 tcp 1540 [0 0 0 0] ------- [3:0 6:0 32 0] [330 0] 0 0
s 30.149013675 _3_ RTR  --- 1410 tcp 1540 [0 0 0 0] ------- [3:0 6:0 30 5] [330 0] 0 0
r 30.150940453 _3_ AGT  --- 1404 ack 40 [13a 3 5 800] ------- [6:0 3:0 28 3] [326 0] 3 0
s 30.150940453 _3_ AGT  --- 1411 tcp 1540 [0 0 0 0] ------- [3:0 6:0 32 0] [331 0] 0 0
r 30.150940453 _3_ RTR  --- 1411 tcp 1540 [0 0 0 0] ------- [3:0 6:0 32 0] [331 0] 0 0
s 30.150940453 _3_ RTR  --- 1411 tcp 1540 [0 0 0 0] ------- [3:0 6:0 30 5] [331 0] 0 0
r 30.164987565 _2_ RTR  --- 1407 tcp 1540 [13a 2 5 800] ------- [3:0 6:0 29 2] [329 0] 2 0
f 30.164987565 _2_ RTR  --- 1407 tcp 1540 [13a 2 5 800] ------- [3:0 6:0 28 6] [329 0] 2 0
r 30.178994398 _9_ AGT  --- 1408 tcp 1540 [13a 9 5 800] ------- [0:0 9:0 28 9] [2 0] 3 0
s 30.178994398 _9_ AGT  --- 1412 ack 40 [0 0 0 0] ------- [9:0 0:0 32 0] [2 0] 0 0
r 30.178994398 _9_ RTR  --- 1412 ack 40 [0 0 0 0] ------- [9:0 0:0 32 0] [2 0] 0 0
s 30.178994398 _9_ RTR  --- 1412 ack 40 [0 0 0 0] ------- [9:0 0:0 30 5] [2 0] 0 0
r 30.180960424 _5_ RTR  --- 1412 ack 40 [13a 5 9 800] ------- [9:0 0:0 30 5] [2 0] 1 0
f 30.180960424 _5_ RTR  --- 1412 ack 40 [13a 5 9 800] ------- [9:0 0:0 29 3] [2 0] 1 0
r 30.194807665 _6_ AGT  --- 1407 tcp 1540 [13a 6 2 800] ------- [3:0 6:0 28 6] [329 0] 3 0
s 30.194807665 _6_ AGT  --- 1413 ack 40 [0 0 0 0] ------- [6:0 3:0 32 0] [329 0] 0 0
r 30.194807665 _6_ RTR  --- 1413 ack 40 [0 0 0 0] ------- [6:0 3:0 32 0] [329 0] 0 0
s 30.194807665 _6_ RTR  --- 1413 ack 40 [0 0 0 0] ------- [6:0 3:0 30 2] [329 0] 0 0
r 30.196170214 _6_ RTR  --- 0 AODV 48 [0 ffffffff 8 800] ------- [8:255 -1:255 30 0] [0x2 1 2 [7 12] [8 8]] (REQUEST)
s 30.196170214 _6_ RTR  --- 0 AODV 44 [0 0 0 0] ------- [6:255 8:255 30 8] [0x4 3 [7 12] 7.000000] (REPLY)
r 30.210307429 _5_ RTR  --- 1410 tcp 1540 [13a 5 3 800] ------- [3:0 6:0 30 5] [330 0] 1 0
f 30.210307429 _5_ RTR  --- 1410 tcp 1540 [13a 5 3 800] ------- [3:0 6:0 29 2] [330 0] 1 0
r 30.224214208 _5_ RTR  --- 1411 tcp 1540 [13a 5 3 800] ------- [3:0 6:0 30 5] [331 0] 1 0
f 30.224214208 _5_ RTR  --- 1411 tcp 1540 [13a 5 3 800] ------- [3:0 6:0 29 2] [331 0] 1 0
r 30.238100228 _9_ AGT  --- 1409 tcp 1540 [13a 9 5 800] ------- [0:0 9:0 28 9] [3 0] 3 0
s 30.238100228 _9_ AGT  --- 1414 ack 40 [0 0 0 0] ------- [9:0 0:0 32 0] [3 0] 0 0
r 30.238100228 _9_ RTR  --- 1414 ack 40 [0 0 0 0] ------- [9:0 0:0 32 0] [3 0] 0 0
s 30.238100228 _9_ RTR  --- 1414 ack 40 [0 0 0 0] ------- [9:0 0:0 30 5] [3 0] 0 0
r 30.239966248 _5_ RTR  --- 1414 ack 40 [13a 5 9 800] ------- [9:0 0:0 30 5] [3 0] 1 0
f 30.239966248 _5_ RTR  --- 1414 ack 40 [13a 5 9 800] ------- [9:0 0:0 29 3] [3 0] 1 0
r 30.242132332 _3_ RTR  --- 1412 ack 40 [13a 3 5 800] ------- [9:0 0:0 29 3] [2 0] 2 0
f 30.242132332 _3_ RTR  --- 1412 ack 40 [13a 3 5 800] ------- [9:0 0:0 28 0] [2 0] 2 0
r 30.244198580 _0_ AGT  --- 1412 ack 40 [13a 0 3 800] ------- [9:0 0:0 28 0] [2 0] 3 0
s 30.244198580 _0_ AGT  --- 1415 tcp 1540 [0 0 0 0] ------- [0:0 9:0 32 0] [4 0] 0 0
r 30.244198580 _0_ RTR  --- 1415 tcp 1540 [0 0 0 0] ------- [0:0 9:0 32 0] [4 0] 0 0
s 30.244198580 _0_ RTR  --- 1415 tcp 1540 [0 0 0 0] ------- [0:0 9:0 30 3] [4 0] 0 0
r 30.258084828 _3_ RTR  --- 1415 tcp 1540 [13a 3 0 800] ------- [0:0 9:0 30 3] [4 0] 1 0
f 30.258084828 _3_ RTR  --- 1415 tcp 1540 [13a 3 0 800] ------- [0:0 9:0 29 5] [4 0] 1 0
r 30.272041746 _2_ RTR  --- 1410 tcp 1540 [13a 2 5 800] ------- [3:0 6:0 29 2] [330 0] 2 0
f 30.272041746 _2_ RTR  --- 1410 tcp 1540 [13a 2 5 800] ------- [3:0 6:0 28 6] [330 0] 2 0
r 30.286008193 _6_ AGT  --- 1410 tcp 1540 [13a 6 2 800] ------- [3:0 6:0 28 6] [330 0] 3 0
s 30.286008193 _6_ AGT  --- 1416 ack 40 [0 0 0 0] ------- [6:0 3:0 32 0] [330 0] 0 0
r 30.286008193 _6_ RTR  --- 1416 ack 40 [0 0 0 0] ------- [6:0 3:0 32 0] [330 0] 0 0
s 30.286008193 _6_ RTR  --- 1416 ack 40 [0 0 0 0] ------- [6:0 3:0 30 2] [330 0] 0 0
r 30.287854641 _2_ RTR  --- 1405 ack 40 [13a 2 6 800] ------- [6:0 3:0 30 2] [327 0] 1 0
f 30.287854641 _2_ RTR  --- 1405 ack 40 [13a 2 6 800] ------- [6:0 3:0 29 5] [327 0] 1 0
r 30.301951388 _2_ RTR  --- 1411 tcp 1540 [13a 2 5 800] ------- [3:0 6:0 29 2] [331 0] 2 0
f 30.301951388 _2_ RTR  --- 1411 tcp 1540 [13a 2 5 800] ------- [3:0 6:0 28 6] [331 0] 2 0
r 30.303877800 _5_ RTR  --- 1405 ack 40 [13a 5 2 800] ------- [6:0 3:0 29 5] [327 0] 2 0
f 30.303877800 _5_ RTR  --- 1405 ack 40 [13a 5 2 800] ------- [6:0 3:0 28 3] [327 0] 2 0
r 30.317994545 _5_ RTR  --- 1415 tcp 1540 [13a 5 3 800] ------- [0:0 9:0 29 5] [4 0] 2 0
f 30.317994545 _5_ RTR  --- 1415 tcp 1540 [13a 5 3 800] ------- [0:0 9:0 28 9] [4 0] 2 0
r 30.331951766 _6_ AGT  --- 1411 tcp 1540 [13a 6 2 800] ------- [3:0 6:0 28 6] [331 0] 3 0
s 30.331951766 _6_ AGT  --- 1417 ack 40 [0 0 0 0] ------- [6:0 3:0 32 0] [331 0] 0 0
r 30.331951766 _6_ RTR  --- 1417 ack 40 [0 0 0 0] ------- [6:0 3:0 32 0] [331 0] 0 0
s 30.331951766 _6_ RTR  --- 1417 ack 40 [0 0 0 0] ------- [6:0 3:0 30 2] [331 0] 0 0
r 30.334088680 _8_ RTR  --- 0 AODV 44 [13a 8 6 800] ------- [6:255 8:255 30 8] [0x4 3 [7 12] 7.000000] (REPLY)
r 30.336235439 _2_ RTR  --- 1406 ack 40 [13a 2 6 800] ------- [6:0 3:0 30 2] [328 0] 1 0
f 30.336235439 _2_ RTR  --- 1406 ack 40 [13a 2 6 800] ------- [6:0 3:0 29 5] [328 0] 1 0
r 30.338131859 _3_ RTR  --- 1414 ack 40 [13a 3 5 800] ------- [9:0 0:0 29 3] [3 0] 2 0
f 30.338131859 _3_ RTR  --- 1414 ack 40 [13a 3 5 800] ------- [9:0 0:0 28 0] [3 0] 2 0
r 30.340418108 _0_ AGT  --- 1414 ack 40 [13a 0 3 800] ------- [9:0 0:0 28 0] [3 0] 3 0
s 30.340418108 _0_ AGT  --- 1418 tcp 1540 [0 0 0 0] ------- [0:0 9:0 32 0] [5 0] 0 0
r 30.340418108 _0_ RTR  --- 1418 tcp 1540 [0 0 0 0] ------- [0:0 9:0 32 0] [5 0] 0 0
s 30.340418108 _0_ RTR  --- 1418 tcp 1540 [0 0 0 0] ------- [0:0 9:0 30 3] [5 0] 0 0
r 30.354304356 _3_ RTR  --- 1418 tcp 1540 [13a 3 0 800] ------- [0:0 9:0 30 3] [5 0] 1 0
f 30.354304356 _3_ RTR  --- 1418 tcp 1540 [13a 3 0 800] ------- [0:0 9:0 29 5] [5 0] 1 0
r 30.356220949 _3_ AGT  --- 1405 ack 40 [13a 3 5 800] ------- [6:0 3:0 28 3] [327 0] 3 0
s 30.356220949 _3_ AGT  --- 1419 tcp 1540 [0 0 0 0] ------- [3:0 6:0 32 0] [332 0] 0 0
r 30.356220949 _3_ RTR  --- 1419 tcp 1540 [0 0 0 0] ------- [3:0 6:0 32 0] [332 0] 0 0
s 30.356220949 _3_ RTR  --- 1419 tcp 1540 [0 0 0 0] ------- [3:0 6:0 30 5] [332 0] 0 0
r 30.370067036 _5_ RTR  --- 1418 tcp 1540 [13a 5 3 800] ------- [0:0 9:0 29 5] [5 0] 2 0
f 30.370067036 _5_ RTR  --- 1418 tcp 1540 [13a 5 3 800] ------- [0:0 9:0 28 9] [5 0] 2 0
r 30.372024213 _5_ RTR  --- 1406 ack 40 [13a 5 2 800] ------- [6:0 3:0 29 5] [328 0] 2 0
f 30.372024213 _5_ RTR  --- 1406 ack 40 [13a 5 2 800] ------- [6:0 3:0 28 3] [328 0] 2 0
r 30.386070217 _9_ AGT  --- 1415 tcp 1540 [13a 9 5 800] ------- [0:0 9:0 28 9] [4 0] 3 0
s 30.386070217 _9_ AGT  --- 1420 ack 40 [0 0 0 0] ------- [9:0 0:0 32 0] [4 0] 0 0
r 30.386070217 _9_ RTR  --- 1420 ack 40 [0 0 0 0] ------- [9:0 0:0 32 0] [4 0] 0 0
s 30.386070217 _9_ RTR  --- 1420 ack 40 [0 0 0 0] ------- [9:0 0:0 30 5] [4 0] 0 0
r 30.399896887 _9_ AGT  --- 1418 tcp 1540 [13a 9 5 800] ------- [0:0 9:0 28 9] [5 0] 3 0
s 30.399896887 _9_ AGT  --- 1421 ack 40 [0 0 0 0] ------- [9:0 0:0 32 0] [5 0] 0 0
r 30.399896887 _9_ RTR  --- 1421 ack 40 [0 0 0 0] ------- [9:0 0:0 32 0] [5 0] 0 0
s 30.399896887 _9_ RTR  --- 1421 ack 40 [0 0 0 0] ------- [9:0 0:0 30 5] [5 0] 0 0
r 30.401823641 _3_ AGT  --- 1406 ack 40 [13a 3 5 800] ------- [6:0 3:0 28 3] [328 0] 3 0
s 30.401823641 _3_ AGT  --- 1422 tcp 1540 [0 0 0 0] ------- [3:0 6:0 32 0] [333 0] 0 0
r 30.401823641 _3_ RTR  --- 1422 tcp 1540 [0 0 0 0] ------- [3:0 6:0 32 0] [333 0] 0 0
s 30.401823641 _3_ AGT  --- 1423 tcp 1540 [0 0 0 0] ------- [3:0 6:0 32 0] [334 0] 0 0
r 30.401823641 _3_ RTR  --- 1423 tcp 1540 [0 0 0 0] ------- [3:0 6:0 32 0] [334 0] 0 0
s 30.401823641 _3_ RTR  --- 1422 tcp 1540 [0 0 0 0] ------- [3:0 6:0 30 5] [333 0] 0 0
s 30.401823641 _3_ RTR  --- 1423 tcp 1540 [0 0 0 0] ------- [3:0 6:0 30 5] [334 0] 0 0
r 30.415949728 _5_ RTR  --- 1419 tcp 1540 [13a 5 3 800] ------- [3:0 6:0 30 5] [332 0] 1 0
f 30.415949728 _5_ RTR  --- 1419 tcp 1540 [13a 5 3 800] ------- [3:0 6:0 29 2] [332 0] 1 0
r 30.417926356 _5_ RTR  --- 1420 ack 40 [13a 5 9 800] ------- [9:0 0:0 30 5] [4 0] 1 0
f 30.417926356 _5_ RTR  --- 1420 ack 40 [13a 5 9 800] ------- [9:0 0:0 29 3] [4 0] 1 0
r 30.419893021 _5_ RTR  --- 1421 ack 40 [13a 5 9 800] ------- [9:0 0:0 30 5] [5 0] 1 0
f 30.419893021 _5_ RTR  --- 1421 ack 40 [13a 5 9 800] ------- [9:0 0:0 29 3] [5 0] 1 0
r 30.433799430 _2_ RTR  --- 1419 tcp 1540 [13a 2 5 800] ------- [3:0 6:0 29 2] [332 0] 2 0
f 30.433799430 _2_ RTR  --- 1419 tcp 1540 [13a 2 5 800] ------- [3:0 6:0 28 6] [332 0] 2 0
r 30.435826320 _3_ RTR  --- 1420 ack 40 [13a 3 5 800] ------- [9:0 0:0 29 3] [4 0] 2 0
f 30.435826320 _3_ RTR  --- 1420 ack 40 [13a 3 5 800] ------- [9:0 0:0 28 0] [4 0] 2 0
r 30.449852408 _5_ RTR  --- 1422 tcp 1540 [13a 5 3 800] ------- [3:0 6:0 30 5] [333 0] 1 0
f 30.449852408 _5_ RTR  --- 1422 tcp 1540 [13a 5 3 800] ------- [3:0 6:0 29 2] [333 0] 1 0
r 30.463789643 _6_ AGT  --- 1419 tcp 1540 [13a 6 2 800] ------- [3:0 6:0 28 6] [332 0] 3 0
s 30.463789643 _6_ AGT  --- 1424 ack 40 [0 0 0 0] ------- [6:0 3:0 32 0] [332 0] 0 0
r 30.463789643 _6_ RTR  --- 1424 ack 40 [0 0 0 0] ------- [6:0 3:0 32 0] [332 0] 0 0
s 30.463789643 _6_ RTR  --- 1424 ack 40 [0 0 0 0] ------- [6:0 3:0 30 2] [332 0] 0 0
r 30.465796115 _2_ RTR  --- 1413 ack 40 [13a 2 6 800] ------- [6:0 3:0 30 2] [329 0] 1 0
f 30.465796115 _2_ RTR  --- 1413 ack 40 [13a 2 6 800] ------- [6:0 3:0 29 5] [329 0] 1 0
r 30.467802521 _5_ RTR  --- 1413 ack 40 [13a 5 2 800] ------- [6:0 3:0 29 5] [329 0] 2 0
f 30.467802521 _5_ RTR  --- 1413 ack 40 [13a 5 2 800] ------- [6:0 3:0 28 3] [329 0] 2 0
r 30.469648610 _3_ RTR  --- 1421 ack 40 [13a 3 5 800] ------- [9:0 0:0 29 3] [5 0] 2 0
f 30.469648610 _3_ RTR  --- 1421 ack 40 [13a 3 5 800] ------- [9:0 0:0 28 0] [5 0] 2 0
r 30.483534698 _5_ RTR  --- 1423 tcp 1540 [13a 5 3 800] ------- [3:0 6:0 30 5] [334 0] 1 0
f 30.483534698 _5_ RTR  --- 1423 tcp 1540 [13a 5 3 800] ------- [3:0 6:0 29 2] [334 0] 1 0
r 30.486489402 _2_ RTR  --- 1416 ack 40 [13a 2 6 800] ------- [6:0 3:0 30 2] [330 0] 1 0
f 30.486489402 _2_ RTR  --- 1416 ack 40 [13a 2 6 800] ------- [6:0 3:0 29 5] [330 0] 1 0
r 30.488475808 _5_ RTR  --- 1416 ack 40 [13a 5 2 800] ------- [6:0 3:0 29 5] [330 0] 2 0
f 30.488475808 _5_ RTR  --- 1416 ack 40 [13a 5 2 800] ------- [6:0 3:0 28 3] [330 0] 2 0
r 30.502422214 _2_ RTR  --- 1422 tcp 1540 [13a 2 5 800] ------- [3:0 6:0 29 2] [333 0] 2 0
f 30.502422214 _2_ RTR  --- 1422 tcp 1540 [13a 2 5 800] ------- [3:0 6:0 28 6] [333 0] 2 0
r 30.504319048 _2_ RTR  --- 1417 ack 40 [13a 2 6 800] ------- [6:0 3:0 30 2] [331 0] 1 0
f 30.504319048 _2_ RTR  --- 1417 ack 40 [13a 2 6 800] ------- [6:0 3:0 29 5] [331 0] 1 0
r 30.506306351 _2_ RTR  --- 1424 ack 40 [13a 2 6 800] ------- [6:0 3:0 30 2] [332 0] 1 0
f 30.506306351 _2_ RTR  --- 1424 ack 40 [13a 2 6 800] ------- [6:0 3:0 29 5] [332 0] 1 0
r 30.520412828 _6_ AGT  --- 1422 tcp 1540 [13a 6 2 800] ------- [3:0 6:0 28 6] [333 0] 3 0
s 30.520412828 _6_ AGT  --- 1425 ack 40 [0 0 0 0] ------- [6:0 3:0 32 0] [333 0] 0 0
r 30.520412828 _6_ RTR  --- 1425 ack 40 [0 0 0 0] ------- [6:0 3:0 32 0] [333 0] 0 0
s 30.520412828 _6_ RTR  --- 1425 ack 40 [0 0 0 0] ------- [6:0 3:0 30 2] [333 0] 0 0
r 30.522480059 _5_ RTR  --- 1417 ack 40 [13a 5 2 800] ------- [6:0 3:0 29 5] [331 0] 2 0
f 30.522480059 _5_ RTR  --- 1417 ack 40 [13a 5 2 800] ------- [6:0 3:0 28 3] [331 0] 2 0
r 30.524387265 _5_ RTR  --- 1424 ack 40 [13a 5 2 800] ------- [6:0 3:0 29 5] [332 0] 2 0
f 30.524387265 _5_ RTR  --- 1424 ack 40 [13a 5 2 800] ------- [6:0 3:0 28 3] [332 0] 2 0
r 30.526233354 _3_ AGT  --- 1413 ack 40 [13a 3 5 800] ------- [6:0 3:0 28 3] [329 0] 3 0
s 30.526233354 _3_ AGT  --- 1426 tcp 1540 [0 0 0 0] ------- [3:0 6:0 32 0] [335 0] 0 0
r 30.526233354 _3_ RTR  --- 1426 tcp 1540 [0 0 0 0] ------- [3:0 6:0 32 0] [335 0] 0 0
s 30.526233354 _3_ RTR  --- 1426 tcp 1540 [0 0 0 0] ------- [3:0 6:0 30 5] [335 0] 0 0
r 30.540180455 _2_ RTR  --- 1423 tcp 1540 [13a 2 5 800] ------- [3:0 6:0 29 2] [334 0] 2 0
f 30.540180455 _2_ RTR  --- 1423 tcp 1540 [13a 2 5 800] ------- [3:0 6:0 28 6] [334 0] 2 0
r 30.542217297 _2_ RTR  --- 1425 ack 40 [13a 2 6 800] ------- [6:0 3:0 30 2] [333 0] 1 0
f 30.542217297 _2_ RTR  --- 1425 ack 40 [13a 2 6 800] ------- [6:0 3:0 29 5] [333 0] 1 0
r 30.556103778 _6_ AGT  --- 1423 tcp 1540 [13a 6 2 800] ------- [3:0 6:0 28 6] [334 0] 3 0
s 30.556103778 _6_ AGT  --- 1427 ack 40 [0 0 0 0] ------- [6:0 3:0 32 0] [334 0] 0 0
r 30.556103778 _6_ RTR  --- 1427 ack 40 [0 0 0 0] ------- [6:0 3:0 32 0] [334 0] 0 0
s 30.556103778 _6_ RTR  --- 1427 ack 40 [0 0 0 0] ------- [6:0 3:0 30 2] [334 0] 0 0
r 30.558010262 _2_ RTR  --- 1427 ack 40 [13a 2 6 800] ------- [6:0 3:0 30 2] [334 0] 1 0
f 30.558010262 _2_ RTR  --- 1427 ack 40 [13a 2 6 800] ------- [6:0 3:0 29 5] [334 0] 1 0
r 30.559986687 _3_ AGT  --- 1416 ack 40 [13a 3 5 800] ------- [6:0 3:0 28 3] [330 0] 3 0
s 30.559986687 _3_ AGT  --- 1428 tcp 1540 [0 0 0 0] ------- [3:0 6:0 32 0] [336 0] 0 0
r 30.559986687 _3_ RTR  --- 1428 tcp 1540 [0 0 0 0] ------- [3:0 6:0 32 0] [336 0] 0 0
s 30.559986687 _3_ RTR  --- 1428 tcp 1540 [0 0 0 0] ------- [3:0 6:0 30 5] [336 0] 0 0
r 30.561912937 _0_ AGT  --- 1420 ack 40 [13a 0 3 800] ------- [9:0 0:0 28 0] [4 0] 3 0
s 30.561912937 _0_ AGT  --- 1429 tcp 1540 [0 0 0 0] ------- [0:0 9:0 32 0] [6 0] 0 0
r 30.561912937 _0_ RTR  --- 1429 tcp 1540 [0 0 0 0] ------- [0:0 9:0 32 0] [6 0] 0 0
s 30.561912937 _0_ AGT  --- 1430 tcp 1540 [0 0 0 0] ------- [0:0 9:0 32 0] [7 0] 0 0
r 30.561912937 _0_ RTR  --- 1430 tcp 1540 [0 0 0 0] ------- [0:0 9:0 32 0] [7 0] 0 0
s 30.561912937 _0_ RTR  --- 1429 tcp 1540 [0 0 0 0] ------- [0:0 9:0 30 3] [6 0] 0 0
s 30.561912937 _0_ RTR  --- 1430 tcp 1540 [0 0 0 0] ------- [0:0 9:0 30 3] [7 0] 0 0
r 30.563859937 _0_ AGT  --- 1421 ack 40 [13a 0 3 800] ------- [9:0 0:0 28 0] [5 0] 3 0
s 30.563859937 _0_ AGT  --- 1431 tcp 1540 [0 0 0 0] ------- [0:0 9:0 32 0] [8 0] 0 0
r 30.563859937 _0_ RTR  --- 1431 tcp 1540 [0 0 0 0] ------- [0:0 9:0 32 0] [8 0] 0 0
s 30.563859937 _0_ RTR  --- 1431 tcp 1540 [0 0 0 0] ------- [0:0 9:0 30 3] [8 0] 0 0
r 30.578006187 _3_ RTR  --- 1429 tcp 1540 [13a 3 0 800] ------- [0:0 9:0 30 3] [6 0] 1 0
f 30.578006187 _3_ RTR  --- 1429 tcp 1540 [13a 3 0 800] ------- [0:0 9:0 29 5] [6 0] 1 0
r 30.591992278 _5_ RTR  --- 1426 tcp 1540 [13a 5 3 800] ------- [3:0 6:0 30 5] [335 0] 1 0
f 30.591992278 _5_ RTR  --- 1426 tcp 1540 [13a 5 3 800] ------- [3:0 6:0 29 2] [335 0] 1 0
r 30.593998369 _3_ AGT  --- 1417 ack 40 [13a 3 5 800] ------- [6:0 3:0 28 3] [331 0] 3 0
s 30.593998369 _3_ AGT  --- 1432 tcp 1540 [0 0 0 0] ------- [3:0 6:0 32 0] [337 0] 0 0
r 30.593998369 _3_ RTR  --- 1432 tcp 1540 [0 0 0 0] ------- [3:0 6:0 32 0] [337 0] 0 0
s 30.593998369 _3_ RTR  --- 1432 tcp 1540 [0 0 0 0] ------- [3:0 6:0 30 5] [337 0] 0 0
r 30.607995186 _3_ RTR  --- 1430 tcp 1540 [13a 3 0 800] ------- [0:0 9:0 30 3] [7 0] 1 0
f 30.607995186 _3_ RTR  --- 1430 tcp 1540 [13a 3 0 800] ------- [0:0 9:0 29 5] [7 0] 1 0
r 30.621901277 _5_ RTR  --- 1428 tcp 1540 [13a 5 3 800] ------- [3:0 6:0 30 5] [336 0] 1 0
f 30.621901277 _5_ RTR  --- 1428 tcp 1540 [13a 5 3 800] ------- [3:0 6:0 29 2] [336 0] 1 0
r 30.623867368 _3_ AGT  --- 1424 ack 40 [13a 3 5 800] ------- [6:0 3:0 28 3] [332 0] 3 0
s 30.623867368 _3_ AGT  --- 1433 tcp 1540 [0 0 0 0] ------- [3:0 6:0 32 0] [338 0] 0 0
r 30.623867368 _3_ RTR  --- 1433 tcp 1540 [0 0 0 0] ------- [3:0 6:0 32 0] [338 0] 0 0
s 30.623867368 _3_ RTR  --- 1433 tcp 1540 [0 0 0 0] ------- [3:0 6:0 30 5] [338 0] 0 0
r 30.637774466 _2_ RTR  --- 1426 tcp 1540 [13a 2 5 800] ------- [3:0 6:0 29 2] [335 0] 2 0
f 30.637774466 _2_ RTR  --- 1426 tcp 1540 [13a 2 5 800] ------- [3:0 6:0 28 6] [335 0] 2 0
r 30.639700867 _5_ RTR  --- 1425 ack 40 [13a 5 2 800] ------- [6:0 3:0 29 5] [333 0] 2 0
f 30.639700867 _5_ RTR  --- 1425 ack 40 [13a 5 2 800] ------- [6:0 3:0 28 3] [333 0] 2 0
r 30.653707267 _2_ RTR  --- 1428 tcp 1540 [13a 2 5 800] ------- [3:0 6:0 29 2] [336 0] 2 0
f 30.653707267 _2_ RTR  --- 1428 tcp 1540 [13a 2 5 800] ------- [3:0 6:0 28 6] [336 0] 2 0
r 30.655694159 _3_ AGT  --- 1425 ack 40 [13a 3 5 800] ------- [6:0 3:0 28 3] [333 0] 3 0
s 30.655694159 _3_ AGT  --- 1434 tcp 1540 [0 0 0 0] ------- [3:0 6:0 32 0] [339 0] 0 0
r 30.655694159 _3_ RTR  --- 1434 tcp 1540 [0 0 0 0] ------- [3:0 6:0 32 0] [339 0] 0 0
s 30.655694159 _3_ RTR  --- 1434 tcp 1540 [0 0 0 0] ------- [3:0 6:0 30 5] [339 0] 0 0
r 30.669610979 _3_ RTR  --- 1431 tcp 1540 [13a 3 0 800] ------- [0:0 9:0 30 3] [8 0] 1 0
f 30.669610979 _3_ RTR  --- 1431 tcp 1540 [13a 3 0 800] ------- [0:0 9:0 29 5] [8 0] 1 0
r 30.683477071 _5_ RTR  --- 1429 tcp 1540 [13a 5 3 800] ------- [0:0 9:0 29 5] [6 0] 2 0
f 30.683477071 _5_ RTR  --- 1429 tcp 1540 [13a 5 3 800] ------- [0:0 9:0 28 9] [6 0] 2 0
r 30.697403861 _5_ RTR  --- 1432 tcp 1540 [13a 5 3 800] ------- [3:0 6:0 30 5] [337 0] 1 0
f 30.697403861 _5_ RTR  --- 1432 tcp 1540 [13a 5 3 800] ------- [3:0 6:0 29 2] [337 0] 1 0
r 30.711630651 _5_ RTR  --- 1430 tcp 1540 [13a 5 3 800] ------- [0:0 9:0 29 5] [7 0] 2 0
f 30.711630651 _5_ RTR  --- 1430 tcp 1540 [13a 5 3 800] ------- [0:0 9:0 28 9] [7 0] 2 0
r 30.725476617 _9_ AGT  --- 1429 tcp 1540 [13a 9 5 800] ------- [0:0 9:0 28 9] [6 0] 3 0
s 30.725476617 _9_ AGT  --- 1435 ack 40 [0 0 0 0] ------- [9:0 0:0 32 0] [6 0] 0 0
r 30.725476617 _9_ RTR  --- 1435 ack 40 [0 0 0 0] ------- [9:0 0:0 32 0] [6 0] 0 0
s 30.725476617 _9_ RTR  --- 1435 ack 40 [0 0 0 0] ------- [9:0 0:0 30 5] [6 0] 0 0
r 30.727322582 _5_ RTR  --- 1435 ack 40 [13a 5 9 800] ------- [9:0 0:0 30 5] [6 0] 1 0
f 30.727322582 _5_ RTR  --- 1435 ack 40 [13a 5 9 800] ------- [9:0 0:0 29 3] [6 0] 1 0
r 30.741499340 _5_ RTR  --- 1433 tcp 1540 [13a 5 3 800] ------- [3:0 6:0 30 5] [338 0] 1 0
f 30.741499340 _5_ RTR  --- 1433 tcp 1540 [13a 5 3 800] ------- [3:0 6:0 29 2] [338 0] 1 0
r 30.755345737 _2_ RTR  --- 1432 tcp 1540 [13a 2 5 800] ------- [3:0 6:0 29 2] [337 0] 2 0
f 30.755345737 _2_ RTR  --- 1432 tcp 1540 [13a 2 5 800] ------- [3:0 6:0 28 6] [337 0] 2 0
r 30.769392497 _9_ AGT  --- 1430 tcp 1540 [13a 9 5 800] ------- [0:0 9:0 28 9] [7 0] 3 0
s 30.769392497 _9_ AGT  --- 1436 ack 40 [0 0 0 0] ------- [9:0 0:0 32 0] [7 0] 0 0
r 30.769392497 _9_ RTR  --- 1436 ack 40 [0 0 0 0] ------- [9:0 0:0 32 0] [7 0] 0 0
s 30.769392497 _9_ RTR  --- 1436 ack 40 [0 0 0 0] ------- [9:0 0:0 30 5] [7 0] 0 0
r 30.771359244 _3_ RTR  --- 1435 ack 40 [13a 3 5 800] ------- [9:0 0:0 29 3] [6 0] 2 0
f 30.771359244 _3_ RTR  --- 1435 ack 40 [13a 3 5 800] ------- [9:0 0:0 28 0] [6 0] 2 0
r 30.785605338 _5_ RTR  --- 1434 tcp 1540 [13a 5 3 800] ------- [3:0 6:0 30 5] [339 0] 1 0
f 30.785605338 _5_ RTR  --- 1434 tcp 1540 [13a 5 3 800] ------- [3:0 6:0 29 2] [339 0] 1 0
r 30.799432131 _5_ RTR  --- 1431 tcp 1540 [13a 5 3 800] ------- [0:0 9:0 29 5] [8 0] 2 0
f 30.799432131 _5_ RTR  --- 1431 tcp 1540 [13a 5 3 800] ------- [0:0 9:0 28 9] [8 0] 2 0
r 30.813278525 _2_ RTR  --- 1433 tcp 1540 [13a 2 5 800] ------- [3:0 6:0 29 2] [338 0] 2 0
f 30.813278525 _2_ RTR  --- 1433 tcp 1540 [13a 2 5 800] ------- [3:0 6:0 28 6] [338 0] 2 0
r 30.827185717 _2_ RTR  --- 1434 tcp 1540 [13a 2 5 800] ------- [3:0 6:0 29 2] [339 0] 2 0
f 30.827185717 _2_ RTR  --- 1434 tcp 1540 [13a 2 5 800] ------- [3:0 6:0 28 6] [339 0] 2 0
r 30.842658968 _9_ AGT  --- 1431 tcp 1540 [13a 9 5 800] ------- [0:0 9:0 28 9] [8 0] 3 0
s 30.842658968 _9_ AGT  --- 1437 ack 40 [0 0 0 0] ------- [9:0 0:0 32 0] [8 0] 0 0
r 30.842658968 _9_ RTR  --- 1437 ack 40 [0 0 0 0] ------- [9:0 0:0 32 0] [8 0] 0 0
s 30.842658968 _9_ RTR  --- 1437 ack 40 [0 0 0 0] ------- [9:0 0:0 30 5] [8 0] 0 0
r 30.844564919 _5_ RTR  --- 1436 ack 40 [13a 5 9 800] ------- [9:0 0:0 30 5] [7 0] 1 0
f 30.844564919 _5_ RTR  --- 1436 ack 40 [13a 5 9 800] ------- [9:0 0:0 29 3] [7 0] 1 0
r 30.846411521 _5_ RTR  --- 1437 ack 40 [13a 5 9 800] ------- [9:0 0:0 30 5] [8 0] 1 0
f 30.846411521 _5_ RTR  --- 1437 ack 40 [13a 5 9 800] ------- [9:0 0:0 29 3] [8 0] 1 0
r 30.848448440 _0_ AGT  --- 1435 ack 40 [13a 0 3 800] ------- [9:0 0:0 28 0] [6 0] 3 0
s 30.848448440 _0_ AGT  --- 1438 tcp 1540 [0 0 0 0] ------- [0:0 9:0 32 0] [9 0] 0 0
r 30.848448440 _0_ RTR  --- 1438 tcp 1540 [0 0 0 0] ------- [0:0 9:0 32 0] [9 0] 0 0
s 30.848448440 _0_ RTR  --- 1438 tcp 1540 [0 0 0 0] ------- [0:0 9:0 30 3] [9 0] 0 0
r 30.862774692 _3_ RTR  --- 1438 tcp 1540 [13a 3 0 800] ------- [0:0 9:0 30 3] [9 0] 1 0
f 30.862774692 _3_ RTR  --- 1438 tcp 1540 [13a 3 0 800] ------- [0:0 9:0 29 5] [9 0] 1 0
r 30.876700788 _5_ RTR  --- 1438 tcp 1540 [13a 5 3 800] ------- [0:0 9:0 29 5] [9 0] 2 0
f 30.876700788 _5_ RTR  --- 1438 tcp 1540 [13a 5 3 800] ------- [0:0 9:0 28 9] [9 0] 2 0
r 30.878726885 _3_ RTR  --- 1436 ack 40 [13a 3 5 800] ------- [9:0 0:0 29 3] [7 0] 2 0
f 30.878726885 _3_ RTR  --- 1436 ack 40 [13a 3 5 800] ------- [9:0 0:0 28 0] [7 0] 2 0
r 30.881073137 _0_ AGT  --- 1436 ack 40 [13a 0 3 800] ------- [9:0 0:0 28 0] [7 0] 3 0
s 30.881073137 _0_ AGT  --- 1439 tcp 1540 [0 0 0 0] ------- [0:0 9:0 32 0] [10 0] 0 0
r 30.881073137 _0_ RTR  --- 1439 tcp 1540 [0 0 0 0] ------- [0:0 9:0 32 0] [10 0] 0 0
s 30.881073137 _0_ AGT  --- 1440 tcp 1540 [0 0 0 0] ------- [0:0 9:0 32 0] [11 0] 0 0
r 30.881073137 _0_ RTR  --- 1440 tcp 1540 [0 0 0 0] ------- [0:0 9:0 32 0] [11 0] 0 0
s 30.881073137 _0_ RTR  --- 1439 tcp 1540 [0 0 0 0] ------- [0:0 9:0 30 3] [10 0] 0 0
s 30.881073137 _0_ RTR  --- 1440 tcp 1540 [0 0 0 0] ------- [0:0 9:0 30 3] [11 0] 0 0
D 30.885444342 _2_ RTR  CBK 1427 ack 40 [13a 5 2 800] ------- [6:0 3:0 29 5] [334 0] 1 0
s 30.885444342 _2_ RTR  --- 0 AODV 40 [0 0 0 0] ------- [2:255 -1:255 1 0] [0x8 2 [3 0] 0.000000] (ERROR)
r 30.894979389 _3_ RTR  --- 1439 tcp 1540 [13a 3 0 800] ------- [0:0 9:0 30 3] [10 0] 1 0
f 30.894979389 _3_ RTR  --- 1439 tcp 1540 [13a 3 0 800] ------- [0:0 9:0 29 5] [10 0] 1 0
s 30.905451345 _2_ RTR  --- 0 AODV 48 [0 0 0 0] ------- [2:255 -1:255 30 0] [0x2 1 4 [6 10] [2 14]] (REQUEST)
r 30.906890987 _9_ RTR  --- 0 AODV 40 [0 ffffffff 2 800] ------- [2:255 -1:255 1 0] [0x8 2 [3 0] 0.000000] (ERROR)
r 30.908348987 _9_ RTR  --- 0 AODV 48 [0 ffffffff 2 800] ------- [2:255 -1:255 30 0] [0x2 1 4 [6 10] [2 14]] (REQUEST)
r 30.908846392 _3_ RTR  --- 1440 tcp 1540 [13a 3 0 800] ------- [0:0 9:0 30 3] [11 0] 1 0
f 30.908846392 _3_ RTR  --- 1440 tcp 1540 [13a 3 0 800] ------- [0:0 9:0 29 5] [11 0] 1 0
s 30.917723248 _9_ RTR  --- 0 AODV 48 [0 ffffffff 2 800] ------- [9:255 -1:255 29 0] [0x2 2 4 [6 10] [2 14]] (REQUEST)
r 30.922867897 _5_ RTR  --- 1439 tcp 1540 [13a 5 3 800] ------- [0:0 9:0 29 5] [10 0] 2 0
f 30.922867897 _5_ RTR  --- 1439 tcp 1540 [13a 5 3 800] ------- [0:0 9:0 28 9] [10 0] 2 0
r 30.937660693 _5_ RTR  --- 1440 tcp 1540 [13a 5 3 800] ------- [0:0 9:0 29 5] [11 0] 2 0
f 30.937660693 _5_ RTR  --- 1440 tcp 1540 [13a 5 3 800] ------- [0:0 9:0 28 9] [11 0] 2 0
r 30.939806790 _3_ RTR  --- 1437 ack 40 [13a 3 5 800] ------- [9:0 0:0 29 3] [8 0] 2 0
f 30.939806790 _3_ RTR  --- 1437 ack 40 [13a 3 5 800] ------- [9:0 0:0 28 0] [8 0] 2 0
r 30.942480441 _0_ AGT  --- 1437 ack 40 [13a 0 3 800] ------- [9:0 0:0 28 0] [8 0] 3 0
s 30.942480441 _0_ AGT  --- 1441 tcp 1540 [0 0 0 0] ------- [0:0 9:0 32 0] [12 0] 0 0
r 30.942480441 _0_ RTR  --- 1441 tcp 1540 [0 0 0 0] ------- [0:0 9:0 32 0] [12 0] 0 0
s 30.942480441 _0_ RTR  --- 1441 tcp 1540 [0 0 0 0] ------- [0:0 9:0 30 3] [12 0] 0 0
r 30.944023647 _2_ RTR  --- 0 AODV 48 [0 ffffffff 9 800] ------- [9:255 -1:255 29 0] [0x2 2 4 [6 10] [2 14]] (REQUEST)
r 30.959546694 _3_ RTR  --- 1441 tcp 1540 [13a 3 0 800] ------- [0:0 9:0 30 3] [12 0] 1 0
f 30.959546694 _3_ RTR  --- 1441 tcp 1540 [13a 3 0 800] ------- [0:0 9:0 29 5] [12 0] 1 0
r 30.973412791 _5_ RTR  --- 1441 tcp 1540 [13a 5 3 800] ------- [0:0 9:0 29 5] [12 0] 2 0
f 30.973412791 _5_ RTR  --- 1441 tcp 1540 [13a 5 3 800] ------- [0:0 9:0 28 9] [12 0] 2 0
r 30.987558729 _9_ AGT  --- 1438 tcp 1540 [13a 9 5 800] ------- [0:0 9:0 28 9] [9 0] 3 0
s 30.987558729 _9_ AGT  --- 1442 ack 40 [0 0 0 0] ------- [9:0 0:0 32 0] [9 0] 0 0
r 30.987558729 _9_ RTR  --- 1442 ack 40 [0 0 0 0] ------- [9:0 0:0 32 0] [9 0] 0 0
s 30.987558729 _9_ RTR  --- 1442 ack 40 [0 0 0 0] ------- [9:0 0:0 30 5] [9 0] 0 0
r 30.989464665 _5_ RTR  --- 1442 ack 40 [13a 5 9 800] ------- [9:0 0:0 30 5] [9 0] 1 0
f 30.989464665 _5_ RTR  --- 1442 ack 40 [13a 5 9 800] ------- [9:0 0:0 29 3] [9 0] 1 0
s 31.000000000 _1_ RTR  --- 0 AODV 48 [0 0 0 0] ------- [1:255 -1:255 30 0] [0x2 1 6 [8 0] [1 14]] (REQUEST)
s 31.000000000 _4_ RTR  --- 0 AODV 48 [0 0 0 0] ------- [4:255 -1:255 30 0] [0x2 1 6 [5 0] [4 14]] (REQUEST)
r 31.003510601 _9_ AGT  --- 1439 tcp 1540 [13a 9 5 800] ------- [0:0 9:0 28 9] [10 0] 3 0
s 31.003510601 _9_ AGT  --- 1443 ack 40 [0 0 0 0] ------- [9:0 0:0 32 0] [10 0] 0 0
r 31.003510601 _9_ RTR  --- 1443 ack 40 [0 0 0 0] ------- [9:0 0:0 32 0] [10 0] 0 0
s 31.003510601 _9_ RTR  --- 1443 ack 40 [0 0 0 0] ------- [9:0 0:0 30 5] [10 0] 0 0
r 31.004774334 _0_ RTR  --- 0 AODV 48 [0 ffffffff 1 800] ------- [1:255 -1:255 30 0] [0x2 1 6 [8 0] [1 14]] (REQUEST)
r 31.006217836 _3_ RTR  --- 0 AODV 48 [0 ffffffff 4 800] ------- [4:255 -1:255 30 0] [0x2 1 6 [5 0] [4 14]] (REQUEST)
r 31.008214733 _5_ RTR  --- 1443 ack 40 [13a 5 9 800] ------- [9:0 0:0 30 5] [10 0] 1 0
f 31.008214733 _5_ RTR  --- 1443 ack 40 [13a 5 9 800] ------- [9:0 0:0 29 3] [10 0] 1 0
s 31.011035883 _0_ RTR  --- 0 AODV 48 [0 ffffffff 1 800] ------- [0:255 -1:255 29 0] [0x2 2 6 [8 0] [1 14]] (REQUEST)
s 31.011530864 _3_ RTR  --- 0 AODV 48 [0 ffffffff 4 800] ------- [3:255 -1:255 29 0] [0x2 2 6 [5 0] [4 14]] (REQUEST)
r 31.022120666 _9_ AGT  --- 1440 tcp 1540 [13a 9 5 800] ------- [0:0 9:0 28 9] [11 0] 3 0
s 31.022120666 _9_ AGT  --- 1444 ack 40 [0 0 0 0] ------- [9:0 0:0 32 0] [11 0] 0 0
r 31.022120666 _9_ RTR  --- 1444 ack 40 [0 0 0 0] ------- [9:0 0:0 32 0] [11 0] 0 0
s 31.022120666 _9_ RTR  --- 1444 ack 40 [0 0 0 0] ------- [9:0 0:0 30 5] [11 0] 0 0
r 31.035967243 _9_ AGT  --- 1441 tcp 1540 [13a 9 5 800] ------- [0:0 9:0 28 9] [12 0] 3 0
s 31.035967243 _9_ AGT  --- 1445 ack 40 [0 0 0 0] ------- [9:0 0:0 32 0] [12 0] 0 0
r 31.035967243 _9_ RTR  --- 1445 ack 40 [0 0 0 0] ------- [9:0 0:0 32 0] [12 0] 0 0
s 31.035967243 _9_ RTR  --- 1445 ack 40 [0 0 0 0] ------- [9:0 0:0 30 5] [12 0] 0 0
r 31.038033986 _3_ RTR  --- 1442 ack 40 [13a 3 5 800] ------- [9:0 0:0 29 3] [9 0] 2 0
f 31.038033986 _3_ RTR  --- 1442 ack 40 [13a 3 5 800] ------- [9:0 0:0 28 0] [9 0] 2 0
r 31.039406411 _4_ RTR  --- 0 AODV 48 [0 ffffffff 3 800] ------- [3:255 -1:255 29 0] [0x2 2 6 [5 0] [4 14]] (REQUEST)
r 31.039406685 _5_ RTR  --- 0 AODV 48 [0 ffffffff 3 800] ------- [3:255 -1:255 29 0] [0x2 2 6 [5 0] [4 14]] (REQUEST)
s 31.039406685 _5_ RTR  --- 0 AODV 44 [0 0 0 0] ------- [5:255 4:255 30 3] [0x4 1 [5 10] 10.000000] (REPLY)
r 31.039406737 _0_ RTR  --- 0 AODV 48 [0 ffffffff 3 800] ------- [3:255 -1:255 29 0] [0x2 2 6 [5 0] [4 14]] (REQUEST)
r 31.040465397 _1_ RTR  --- 0 AODV 48 [0 ffffffff 0 800] ------- [0:255 -1:255 29 0] [0x2 2 6 [8 0] [1 14]] (REQUEST)
s 31.040793023 _0_ RTR  --- 0 AODV 48 [0 ffffffff 3 800] ------- [0:255 -1:255 28 0] [0x2 3 6 [5 5] [4 14]] (REQUEST)
r 31.042402115 _3_ RTR  --- 1443 ack 40 [13a 3 5 800] ------- [9:0 0:0 29 3] [10 0] 2 0
f 31.042402115 _3_ RTR  --- 1443 ack 40 [13a 3 5 800] ------- [9:0 0:0 28 0] [10 0] 2 0
r 31.043805354 _1_ RTR  --- 0 AODV 48 [0 ffffffff 0 800] ------- [0:255 -1:255 28 0] [0x2 3 6 [5 5] [4 14]] (REQUEST)
r 31.046080997 _0_ AGT  --- 1442 ack 40 [13a 0 3 800] ------- [9:0 0:0 28 0] [9 0] 3 0
s 31.046080997 _0_ AGT  --- 1446 tcp 1540 [0 0 0 0] ------- [0:0 9:0 32 0] [13 0] 0 0
r 31.046080997 _0_ RTR  --- 1446 tcp 1540 [0 0 0 0] ------- [0:0 9:0 32 0] [13 0] 0 0
s 31.046080997 _0_ RTR  --- 1446 tcp 1540 [0 0 0 0] ------- [0:0 9:0 30 3] [13 0] 0 0
r 31.049206548 _3_ RTR  --- 0 AODV 44 [13a 3 5 800] ------- [5:255 4:255 30 3] [0x4 1 [5 10] 10.000000] (REPLY)
f 31.049206548 _3_ RTR  --- 0 AODV 44 [13a 3 5 800] ------- [5:255 4:255 29 4] [0x4 2 [5 10] 10.000000] (REPLY)
r 31.051112801 _0_ AGT  --- 1443 ack 40 [13a 0 3 800] ------- [9:0 0:0 28 0] [10 0] 3 0