n -t * -s 0  -x 571 -y 751 -Z 0 -z 25  -v circle -c black
n -t * -s 1  -x 750 -y 954 -Z 0 -z 25  -v circle -c black
n -t * -s 2  -x 243 -y 492 -Z 0 -z 25  -v circle -c black
n -t * -s 3  -x 885 -y 711 -Z 0 -z 25  -v circle -c black
n -t * -s 4  -x 932 -y 461 -Z 0 -z 25  -v circle -c black
n -t * -s 5  -x 564 -y 659 -Z 0 -z 25  -v circle -c black
n -t * -s 6  -x 523 -y 419 -Z 0 -z 25  -v circle -c black
n -t * -s 7  -x 135 -y 737 -Z 0 -z 25  -v circle -c black
n -t * -s 8  -x 216 -y 707 -Z 0 -z 25  -v circle -c black
n -t * -s 9  -x 636 -y 37 -Z 0 -z 25  -v circle -c black
V -t * -v 1.0a5 -a 0
W -t * -x 1000 -y 1000
A -t * -n 1 -p 0 -o 0x7fffffff -c 30 -a 1
A -t * -h 1 -m 1073741823 -s 0
+ -t 0.010000000 -s 0 -d -1 -p tcp -e 40 -c 2 -a 0 -i 0 -k AGT 
- -t 0.010000000 -s 0 -d -1 -p tcp -e 40 -c 2 -a 0 -i 0 -k AGT
h -t 0.010000000 -s 0 -d -1 -p tcp -e 40 -c 2 -a 0 -i 0 -k AGT
+ -t 0.010000000 -s 1 -d -1 -p tcp -e 40 -c 2 -a 0 -i 1 -k AGT 
- -t 0.010000000 -s 1 -d -1 -p tcp -e 40 -c 2 -a 0 -i 1 -k AGT
h -t 0.010000000 -s 1 -d -1 -p tcp -e 40 -c 2 -a 0 -i 1 -k AGT
+ -t 0.010000000 -s 2 -d -1 -p tcp -e 40 -c 2 -a 0 -i 2 -k AGT 
- -t 0.010000000 -s 2 -d -1 -p tcp -e 40 -c 2 -a 0 -i 2 -k AGT
h -t 0.010000000 -s 2 -d -1 -p tcp -e 40 -c 2 -a 0 -i 2 -k AGT
+ -t 0.010000000 -s 3 -d -1 -p tcp -e 40 -c 2 -a 0 -i 3 -k AGT 
- -t 0.010000000 -s 3 -d -1 -p tcp -e 40 -c 2 -a 0 -i 3 -k AGT
h -t 0.010000000 -s 3 -d -1 -p tcp -e 40 -c 2 -a 0 -i 3 -k AGT
+ -t 0.010000000 -s 4 -d -1 -p tcp -e 40 -c 2 -a 0 -i 4 -k AGT 
- -t 0.010000000 -s 4 -d -1 -p tcp -e 40 -c 2 -a 0 -i 4 -k AGT
h -t 0.010000000 -s 4 -d -1 -p tcp -e 40 -c 2 -a 0 -i 4 -k AGT
+ -t 0.010000000 -s 0 -d -1 -p AODV -e 48 -c 2 -a 0 -i 0 -k RTR 
- -t 0.010000000 -s 0 -d -1 -p AODV -e 48 -c 2 -a 0 -i 0 -k RTR
h -t 0.010000000 -s 0 -d -1 -p AODV -e 48 -c 2 -a 0 -i 0 -k RTR
+ -t 0.010000000 -s 1 -d -1 -p AODV -e 48 -c 2 -a 0 -i 0 -k RTR 
- -t 0.010000000 -s 1 -d -1 -p AODV -e 48 -c 2 -a 0 -i 0 -k RTR
h -t 0.010000000 -s 1 -d -1 -p AODV -e 48 -c 2 -a 0 -i 0 -k RTR
+ -t 0.010000000 -s 2 -d -1 -p AODV -e 48 -c 2 -a 0 -i 0 -k RTR 
- -t 0.010000000 -s 2 -d -1 -p AODV -e 48 -c 2 -a 0 -i 0 -k RTR
h -t 0.010000000 -s 2 -d -1 -p AODV -e 48 -c 2 -a 0 -i 0 -k RTR
+ -t 0.010000000 -s 3 -d -1 -p AODV -e 48 -c 2 -a 0 -i 0 -k RTR 
- -t 0.010000000 -s 3 -d -1 -p AODV -e 48 -c 2 -a 0 -i 0 -k RTR
h -t 0.010000000 -s 3 -d -1 -p AODV -e 48 -c 2 -a 0 -i 0 -k RTR
+ -t 0.010000000 -s 4 -d -1 -p AODV -e 48 -c 2 -a 0 -i 0 -k RTR 
- -t 0.010000000 -s 4 -d -1 -p AODV -e 48 -c 2 -a 0 -i 0 -k RTR
h -t 0.010000000 -s 4 -d -1 -p AODV -e 48 -c 2 -a 0 -i 0 -k RTR
r -t 0.010948308 -s 5 -d -1 -p AODV -e 48 -c 2 -a 0 -i 0 -k RTR
r -t 0.012412115 -s 8 -d -1 -p AODV -e 48 -c 2 -a 0 -i 0 -k RTR
+ -t 0.018812792 -s 8 -d -1 -p AODV -e 48 -c 2 -a 0 -i 0 -k RTR 
- -t 0.018812792 -s 8 -d -1 -p AODV -e 48 -c 2 -a 0 -i 0 -k RTR
h -t 0.018812792 -s 8 -d -1 -p AODV -e 48 -c 2 -a 0 -i 0 -k RTR
+ -t 0.019311543 -s 5 -d -1 -p AODV -e 48 -c 2 -a 0 -i 0 -k RTR 
- -t 0.019311543 -s 5 -d -1 -p AODV -e 48 -c 2 -a 0 -i 0 -k RTR
h -t 0.019311543 -s 5 -d -1 -p AODV -e 48 -c 2 -a 0 -i 0 -k RTR
r -t 0.019921080 -s 7 -d -1 -p AODV -e 48 -c 2 -a 0 -i 0 -k RTR
+ -t 0.019921080 -s 7 -d 8 -p AODV -e 44 -c 2 -a 0 -i 0 -k RTR 
- -t 0.019921080 -s 7 -d 8 -p AODV -e 44 -c 2 -a 0 -i 0 -k RTR
h -t 0.019921080 -s 7 -d 8 -p AODV -e 44 -c 2 -a 0 -i 0 -k RTR
r -t 0.019921514 -s 2 -d -1 -p AODV -e 48 -c 2 -a 0 -i 0 -k RTR
+ -t 0.024526095 -s 8 -d 2 -p AODV -e 44 -c 2 -a 0 -i 0 -k RTR 
- -t 0.024526095 -s 8 -d 2 -p AODV -e 44 -c 2 -a 0 -i 0 -k RTR
h -t 0.024526095 -s 8 -d 2 -p AODV -e 44 -c 2 -a 0 -i 0 -k RTR
+ -t 0.030078151 -s 2 -d 8 -p tcp -e 40 -c 2 -a 0 -i 2 -k RTR 
- -t 0.030078151 -s 2 -d 8 -p tcp -e 40 -c 2 -a 0 -i 2 -k RTR
h -t 0.030078151 -s 2 -d 8 -p tcp -e 40 -c 2 -a 0 -i 2 -k RTR
+ -t 0.032064318 -s 8 -d 7 -p tcp -e 40 -c 2 -a 0 -i 2 -k RTR 
- -t 0.032064318 -s 8 -d 7 -p tcp -e 40 -c 2 -a 0 -i 2 -k RTR
h -t 0.032064318 -s 8 -d 7 -p tcp -e 40 -c 2 -a 0 -i 2 -k RTR
r -t 0.034109182 -s 7 -d 7 -p tcp -e 40 -c 2 -a 0 -i 2 -k AGT
+ -t 0.034109182 -s 7 -d -1 -p ack -e 40 -c 2 -a 0 -i 5 -k AGT 
- -t 0.034109182 -s 7 -d -1 -p ack -e 40 -c 2 -a 0 -i 5 -k AGT
h -t 0.034109182 -s 7 -d -1 -p ack -e 40 -c 2 -a 0 -i 5 -k AGT
+ -t 0.034109182 -s 7 -d 8 -p ack -e 40 -c 2 -a 0 -i 5 -k RTR 
- -t 0.034109182 -s 7 -d 8 -p ack -e 40 -c 2 -a 0 -i 5 -k RTR
h -t 0.034109182 -s 7 -d 8 -p ack -e 40 -c 2 -a 0 -i 5 -k RTR
+ -t 0.036234046 -s 8 -d 2 -p ack -e 40 -c 2 -a 0 -i 5 -k RTR 
- -t 0.036234046 -s 8 -d 2 -p ack -e 40 -c 2 -a 0 -i 5 -k RTR
h -t 0.036234046 -s 8 -d 2 -p ack -e 40 -c 2 -a 0 -i 5 -k RTR
r -t 0.038120213 -s 2 -d 2 -p ack -e 40 -c 2 -a 0 -i 5 -k AGT
+ -t 0.038120213 -s 2 -d -1 -p tcp -e 1540 -c 2 -a 0 -i 6 -k AGT 
- -t 0.038120213 -s 2 -d -1 -p tcp -e 1540 -c 2 -a 0 -i 6 -k AGT
h -t 0.038120213 -s 2 -d -1 -p tcp -e 1540 -c 2 -a 0 -i 6 -k AGT
+ -t 0.038120213 -s 2 -d -1 -p tcp -e 1540 -c 2 -a 0 -i 7 -k AGT 
- -t 0.038120213 -s 2 -d -1 -p tcp -e 1540 -c 2 -a 0 -i 7 -k AGT
h -t 0.038120213 -s 2 -d -1 -p tcp -e 1540 -c 2 -a 0 -i 7 -k AGT
+ -t 0.038120213 -s 2 -d 8 -p tcp -e 1540 -c 2 -a 0 -i 6 -k RTR 
- -t 0.038120213 -s 2 -d 8 -p tcp -e 1540 -c 2 -a 0 -i 6 -k RTR
h -t 0.038120213 -s 2 -d 8 -p tcp -e 1540 -c 2 -a 0 -i 6 -k RTR
+ -t 0.038120213 -s 2 -d 8 -p tcp -e 1540 -c 2 -a 0 -i 7 -k RTR 
- -t 0.038120213 -s 2 -d 8 -p tcp -e 1540 -c 2 -a 0 -i 7 -k RTR
h -t 0.038120213 -s 2 -d 8 -p tcp -e 1540 -c 2 -a 0 -i 7 -k RTR
+ -t 0.052026380 -s 8 -d 7 -p tcp -e 1540 -c 2 -a 0 -i 6 -k RTR 
- -t 0.052026380 -s 8 -d 7 -p tcp -e 1540 -c 2 -a 0 -i 6 -k RTR
h -t 0.052026380 -s 8 -d 7 -p tcp -e 1540 -c 2 -a 0 -i 6 -k RTR
+ -t 0.066053269 -s 8 -d 7 -p tcp -e 1540 -c 2 -a 0 -i 7 -k RTR 
- -t 0.066053269 -s 8 -d 7 -p tcp -e 1540 -c 2 -a 0 -i 7 -k RTR
h -t 0.066053269 -s 8 -d 7 -p tcp -e 1540 -c 2 -a 0 -i 7 -k RTR
r -t 0.079898133 -s 7 -d 7 -p tcp -e 1540 -c 2 -a 0 -i 6 -k AGT
+ -t 0.079898133 -s 7 -d -1 -p ack -e 40 -c 2 -a 0 -i 8 -k AGT 
- -t 0.079898133 -s 7 -d -1 -p ack -e 40 -c 2 -a 0 -i 8 -k AGT
h -t 0.079898133 -s 7 -d -1 -p ack -e 40 -c 2 -a 0 -i 8 -k AGT
+ -t 0.079898133 -s 7 -d 8 -p ack -e 40 -c 2 -a 0 -i 8 -k RTR 
- -t 0.079898133 -s 7 -d 8 -p ack -e 40 -c 2 -a 0 -i 8 -k RTR
h -t 0.079898133 -s 7 -d 8 -p ack -e 40 -c 2 -a 0 -i 8 -k RTR
r -t 0.093943284 -s 7 -d 7 -p tcp -e 1540 -c 2 -a 0 -i 7 -k AGT
+ -t 0.093943284 -s 7 -d -1 -p ack -e 40 -c 2 -a 0 -i 9 -k AGT 
- -t 0.093943284 -s 7 -d -1 -p ack -e 40 -c 2 -a 0 -i 9 -k AGT
h -t 0.093943284 -s 7 -d -1 -p ack -e 40 -c 2 -a 0 -i 9 -k AGT
+ -t 0.093943284 -s 7 -d 8 -p ack -e 40 -c 2 -a 0 -i 9 -k RTR 
- -t 0.093943284 -s 7 -d 8 -p ack -e 40 -c 2 -a 0 -i 9 -k RTR
h -t 0.093943284 -s 7 -d 8 -p ack -e 40 -c 2 -a 0 -i 9 -k RTR
+ -t 0.096068148 -s 8 -d 2 -p ack -e 40 -c 2 -a 0 -i 8 -k RTR 
- -t 0.096068148 -s 8 -d 2 -p ack -e 40 -c 2 -a 0 -i 8 -k RTR
h -t 0.096068148 -s 8 -d 2 -p ack -e 40 -c 2 -a 0 -i 8 -k RTR
+ -t 0.097953300 -s 8 -d 2 -p ack -e 40 -c 2 -a 0 -i 9 -k RTR 
- -t 0.097953300 -s 8 -d 2 -p ack -e 40 -c 2 -a 0 -i 9 -k RTR
h -t 0.097953300 -s 8 -d 2 -p ack -e 40 -c 2 -a 0 -i 9 -k RTR
r -t 0.100299467 -s 2 -d 2 -p ack -e 40 -c 2 -a 0 -i 8 -k AGT
+ -t 0.100299467 -s 2 -d -1 -p tcp -e 1540 -c 2 -a 0 -i 10 -k AGT 
- -t 0.100299467 -s 2 -d -1 -p tcp -e 1540 -c 2 -a 0 -i 10 -k AGT
h -t 0.100299467 -s 2 -d -1 -p tcp -e 1540 -c 2 -a 0 -i 10 -k AGT
+ -t 0.100299467 -s 2 -d -1 -p tcp -e 1540 -c 2 -a 0 -i 11 -k AGT 
- -t 0.100299467 -s 2 -d -1 -p tcp -e 1540 -c 2 -a 0 -i 11 -k AGT
h -t 0.100299467 -s 2 -d -1 -p tcp -e 1540 -c 2 -a 0 -i 11 -k AGT
+ -t 0.100299467 -s 2 -d 8 -p tcp -e 1540 -c 2 -a 0 -i 10 -k RTR 
- -t 0.100299467 -s 2 -d 8 -p tcp -e 1540 -c 2 -a 0 -i 10 -k RTR
h -t 0.100299467 -s 2 -d 8 -p tcp -e 1540 -c 2 -a 0 -i 10 -k RTR
+ -t 0.100299467 -s 2 -d 8 -p tcp -e 1540 -c 2 -a 0 -i 11 -k RTR 
- -t 0.100299467 -s 2 -d 8 -p tcp -e 1540 -c 2 -a 0 -i 11 -k RTR
h -t 0.100299467 -s 2 -d 8 -p tcp -e 1540 -c 2 -a 0 -i 11 -k RTR
+ -t 0.114465634 -s 8 -d 7 -p tcp -e 1540 -c 2 -a 0 -i 10 -k RTR 
- -t 0.114465634 -s 8 -d 7 -p tcp -e 1540 -c 2 -a 0 -i 10 -k RTR
h -t 0.114465634 -s 8 -d 7 -p tcp -e 1540 -c 2 -a 0 -i 10 -k RTR
r -t 0.116451800 -s 2 -d 2 -p ack -e 40 -c 2 -a 0 -i 9 -k AGT
+ -t 0.116451800 -s 2 -d -1 -p tcp -e 1540 -c 2 -a 0 -i 12 -k AGT 
- -t 0.116451800 -s 2 -d -1 -p tcp -e 1540 -c 2 -a 0 -i 12 -k AGT
h -t 0.116451800 -s 2 -d -1 -p tcp -e 1540 -c 2 -a 0 -i 12 -k AGT
+ -t 0.116451800 -s 2 -d -1 -p tcp -e 1540 -c 2 -a 0 -i 13 -k AGT 
- -t 0.116451800 -s 2 -d -1 -p tcp -e 1540 -c 2 -a 0 -i 13 -k AGT
h -t 0.116451800 -s 2 -d -1 -p tcp -e 1540 -c 2 -a 0 -i 13 -k AGT
+ -t 0.116451800 -s 2 -d 8 -p tcp -e 1540 -c 2 -a 0 -i 12 -k RTR 
- -t 0.116451800 -s 2 -d 8 -p tcp -e 1540 -c 2 -a 0 -i 12 -k RTR
h -t 0.116451800 -s 2 -d 8 -p tcp -e 1540 -c 2 -a 0 -i 12 -k RTR
+ -t 0.116451800 -s 2 -d 8 -p tcp -e 1540 -c 2 -a 0 -i 13 -k RTR 
- -t 0.116451800 -s 2 -d 8 -p tcp -e 1540 -c 2 -a 0 -i 13 -k RTR
h -t 0.116451800 -s 2 -d 8 -p tcp -e 1540 -c 2 -a 0 -i 13 -k RTR
+ -t 0.130397967 -s 8 -d 7 -p tcp -e 1540 -c 2 -a 0 -i 11 -k RTR 
- -t 0.130397967 -s 8 -d 7 -p tcp -e 1540 -c 2 -a 0 -i 11 -k RTR
h -t 0.130397967 -s 8 -d 7 -p tcp -e 1540 -c 2 -a 0 -i 11 -k RTR
r -t 0.144282831 -s 7 -d 7 -p tcp -e 1540 -c 2 -a 0 -i 10 -k AGT
+ -t 0.144282831 -s 7 -d -1 -p ack -e 40 -c 2 -a 0 -i 14 -k AGT 
- -t 0.144282831 -s 7 -d -1 -p ack -e 40 -c 2 -a 0 -i 14 -k AGT
h -t 0.144282831 -s 7 -d -1 -p ack -e 40 -c 2 -a 0 -i 14 -k AGT
+ -t 0.144282831 -s 7 -d 8 -p ack -e 40 -c 2 -a 0 -i 14 -k RTR 
- -t 0.144282831 -s 7 -d 8 -p ack -e 40 -c 2 -a 0 -i 14 -k RTR
h -t 0.144282831 -s 7 -d 8 -p ack -e 40 -c 2 -a 0 -i 14 -k RTR
r -t 0.158107983 -s 7 -d 7 -p tcp -e 1540 -c 2 -a 0 -i 11 -k AGT
+ -t 0.158107983 -s 7 -d -1 -p ack -e 40 -c 2 -a 0 -i 15 -k AGT 
- -t 0.158107983 -s 7 -d -1 -p ack -e 40 -c 2 -a 0 -i 15 -k AGT
h -t 0.158107983 -s 7 -d -1 -p ack -e 40 -c 2 -a 0 -i 15 -k AGT
+ -t 0.158107983 -s 7 -d 8 -p ack -e 40 -c 2 -a 0 -i 15 -k RTR 
- -t 0.158107983 -s 7 -d 8 -p ack -e 40 -c 2 -a 0 -i 15 -k RTR
h -t 0.158107983 -s 7 -d 8 -p ack -e 40 -c 2 -a 0 -i 15 -k RTR
r -t 0.159785744 -s 0 -d -1 -p AODV -e 48 -c 2 -a 0 -i 0 -k RTR
r -t 0.159786248 -s 6 -d -1 -p AODV -e 48 -c 2 -a 0 -i 0 -k RTR
+ -t 0.161681753 -s 8 -d 2 -p ack -e 40 -c 2 -a 0 -i 14 -k RTR 
- -t 0.161681753 -s 8 -d 2 -p ack -e 40 -c 2 -a 0 -i 14 -k RTR
h -t 0.161681753 -s 8 -d 2 -p ack -e 40 -c 2 -a 0 -i 14 -k RTR
+ -t 0.163586905 -s 8 -d 2 -p ack -e 40 -c 2 -a 0 -i 15 -k RTR 
- -t 0.163586905 -s 8 -d 2 -p ack -e 40 -c 2 -a 0 -i 15 -k RTR
h -t 0.163586905 -s 8 -d 2 -p ack -e 40 -c 2 -a 0 -i 15 -k RTR
+ -t 0.165334645 -s 6 -d -1 -p AODV -e 48 -c 2 -a 0 -i 0 -k RTR 
- -t 0.165334645 -s 6 -d -1 -p AODV -e 48 -c 2 -a 0 -i 0 -k RTR
h -t 0.165334645 -s 6 -d -1 -p AODV -e 48 -c 2 -a 0 -i 0 -k RTR
+ -t 0.177543677 -s 8 -d 7 -p tcp -e 1540 -c 2 -a 0 -i 12 -k RTR 
- -t 0.177543677 -s 8 -d 7 -p tcp -e 1540 -c 2 -a 0 -i 12 -k RTR
h -t 0.177543677 -s 8 -d 7 -p tcp -e 1540 -c 2 -a 0 -i 12 -k RTR
r -t 0.179389843 -s 2 -d 2 -p ack -e 40 -c 2 -a 0 -i 14 -k AGT
+ -t 0.179389843 -s 2 -d -1 -p tcp -e 1540 -c 2 -a 0 -i 16 -k AGT 
- -t 0.179389843 -s 2 -d -1 -p tcp -e 1540 -c 2 -a 0 -i 16 -k AGT
h -t 0.179389843 -s 2 -d -1 -p tcp -e 1540 -c 2 -a 0 -i 16 -k AGT
+ -t 0.179389843 -s 2 -d -1 -p tcp -e 1540 -c 2 -a 0 -i 17 -k AGT 
- -t 0.179389843 -s 2 -d -1 -p tcp -e 1540 -c 2 -a 0 -i 17 -k AGT
h -t 0.179389843 -s 2 -d -1 -p tcp -e 1540 -c 2 -a 0 -i 17 -k AGT
+ -t 0.179389843 -s 2 -d 8 -p tcp -e 1540 -c 2 -a 0 -i 16 -k RTR 
- -t 0.179389843 -s 2 -d 8 -p tcp -e 1540 -c 2 -a 0 -i 16 -k RTR
h -t 0.179389843 -s 2 -d 8 -p tcp -e 1540 -c 2 -a 0 -i 16 -k RTR
+ -t 0.179389843 -s 2 -d 8 -p tcp -e 1540 -c 2 -a 0 -i 17 -k RTR 
- -t 0.179389843 -s 2 -d 8 -p tcp -e 1540 -c 2 -a 0 -i 17 -k RTR
h -t 0.179389843 -s 2 -d 8 -p tcp -e 1540 -c 2 -a 0 -i 17 -k RTR
+ -t 0.193456010 -s 8 -d 7 -p tcp -e 1540 -c 2 -a 0 -i 13 -k RTR 
- -t 0.193456010 -s 8 -d 7 -p tcp -e 1540 -c 2 -a 0 -i 13 -k RTR
h -t 0.193456010 -s 8 -d 7 -p tcp -e 1540 -c 2 -a 0 -i 13 -k RTR
r -t 0.195342177 -s 2 -d 2 -p ack -e 40 -c 2 -a 0 -i 15 -k AGT
+ -t 0.195342177 -s 2 -d -1 -p tcp -e 1540 -c 2 -a 0 -i 18 -k AGT 
- -t 0.195342177 -s 2 -d -1 -p tcp -e 1540 -c 2 -a 0 -i 18 -k AGT
h -t 0.195342177 -s 2 -d -1 -p tcp -e 1540 -c 2 -a 0 -i 18 -k AGT
+ -t 0.195342177 -s 2 -d -1 -p tcp -e 1540 -c 2 -a 0 -i 19 -k AGT 
- -t 0.195342177 -s 2 -d -1 -p tcp -e 1540 -c 2 -a 0 -i 19 -k AGT
h -t 0.195342177 -s 2 -d -1 -p tcp -e 1540 -c 2 -a 0 -i 19 -k AGT
+ -t 0.195342177 -s 2 -d 8 -p tcp -e 1540 -c 2 -a 0 -i 18 -k RTR 
- -t 0.195342177 -s 2 -d 8 -p tcp -e 1540 -c 2 -a 0 -i 18 -k RTR
h -t 0.195342177 -s 2 -d 8 -p tcp -e 1540 -c 2 -a 0 -i 18 -k RTR
+ -t 0.195342177 -s 2 -d 8 -p tcp -e 1540 -c 2 -a 0 -i 19 -k RTR 
- -t 0.195342177 -s 2 -d 8 -p tcp -e 1540 -c 2 -a 0 -i 19 -k RTR
h -t 0.195342177 -s 2 -d 8 -p tcp -e 1540 -c 2 -a 0 -i 19 -k RTR
r -t 0.209187763 -s 7 -d 7 -p tcp -e 1540 -c 2 -a 0 -i 12 -k AGT
+ -t 0.209187763 -s 7 -d -1 -p ack -e 40 -c 2 -a 0 -i 20 -k AGT 
- -t 0.209187763 -s 7 -d -1 -p ack -e 40 -c 2 -a 0 -i 20 -k AGT
h -t 0.209187763 -s 7 -d -1 -p ack -e 40 -c 2 -a 0 -i 20 -k AGT
+ -t 0.209187763 -s 7 -d 8 -p ack -e 40 -c 2 -a 0 -i 20 -k RTR 
- -t 0.209187763 -s 7 -d 8 -p ack -e 40 -c 2 -a 0 -i 20 -k RTR
h -t 0.209187763 -s 7 -d 8 -p ack -e 40 -c 2 -a 0 -i 20 -k RTR
+ -t 0.211192627 -s 8 -d 2 -p ack -e 40 -c 2 -a 0 -i 20 -k RTR 
- -t 0.211192627 -s 8 -d 2 -p ack -e 40 -c 2 -a 0 -i 20 -k RTR
h -t 0.211192627 -s 8 -d 2 -p ack -e 40 -c 2 -a 0 -i 20 -k RTR
+ -t 0.225269399 -s 8 -d 7 -p tcp -e 1540 -c 2 -a 0 -i 16 -k RTR 
- -t 0.225269399 -s 8 -d 7 -p tcp -e 1540 -c 2 -a 0 -i 16 -k RTR
h -t 0.225269399 -s 8 -d 7 -p tcp -e 1540 -c 2 -a 0 -i 16 -k RTR
r -t 0.239154262 -s 7 -d 7 -p tcp -e 1540 -c 2 -a 0 -i 13 -k AGT
+ -t 0.239154262 -s 7 -d -1 -p ack -e 40 -c 2 -a 0 -i 21 -k AGT 
- -t 0.239154262 -s 7 -d -1 -p ack -e 40 -c 2 -a 0 -i 21 -k AGT
h -t 0.239154262 -s 7 -d -1 -p ack -e 40 -c 2 -a 0 -i 21 -k AGT
+ -t 0.239154262 -s 7 -d 8 -p ack -e 40 -c 2 -a 0 -i 21 -k RTR 
- -t 0.239154262 -s 7 -d 8 -p ack -e 40 -c 2 -a 0 -i 21 -k RTR
h -t 0.239154262 -s 7 -d 8 -p ack -e 40 -c 2 -a 0 -i 21 -k RTR
r -t 0.241020717 -s 2 -d 2 -p ack -e 40 -c 2 -a 0 -i 20 -k AGT
+ -t 0.241020717 -s 2 -d -1 -p tcp -e 1540 -c 2 -a 0 -i 22 -k AGT 
- -t 0.241020717 -s 2 -d -1 -p tcp -e 1540 -c 2 -a 0 -i 22 -k AGT
h -t 0.241020717 -s 2 -d -1 -p tcp -e 1540 -c 2 -a 0 -i 22 -k AGT
+ -t 0.241020717 -s 2 -d -1 -p tcp -e 1540 -c 2 -a 0 -i 23 -k AGT 
- -t 0.241020717 -s 2 -d -1 -p tcp -e 1540 -c 2 -a 0 -i 23 -k AGT
h -t 0.241020717 -s 2 -d -1 -p tcp -e 1540 -c 2 -a 0 -i 23 -k AGT
+ -t 0.241020717 -s 2 -d 8 -p tcp -e 1540 -c 2 -a 0 -i 22 -k RTR 
- -t 0.241020717 -s 2 -d 8 -p tcp -e 1540 -c 2 -a 0 -i 22 -k RTR
h -t 0.241020717 -s 2 -d 8 -p tcp -e 1540 -c 2 -a 0 -i 22 -k RTR
+ -t 0.241020717 -s 2 -d 8 -p tcp -e 1540 -c 2 -a 0 -i 23 -k RTR 
- -t 0.241020717 -s 2 -d 8 -p tcp -e 1540 -c 2 -a 0 -i 23 -k RTR
h -t 0.241020717 -s 2 -d 8 -p tcp -e 1540 -c 2 -a 0 -i 23 -k RTR
+ -t 0.254906884 -s 8 -d 7 -p tcp -e 1540 -c 2 -a 0 -i 17 -k RTR 
- -t 0.254906884 -s 8 -d 7 -p tcp -e 1540 -c 2 -a 0 -i 17 -k RTR
h -t 0.254906884 -s 8 -d 7 -p tcp -e 1540 -c 2 -a 0 -i 17 -k RTR
+ -t 0.268853773 -s 8 -d 7 -p tcp -e 1540 -c 2 -a 0 -i 18 -k RTR 
- -t 0.268853773 -s 8 -d 7 -p tcp -e 1540 -c 2 -a 0 -i 18 -k RTR
h -t 0.268853773 -s 8 -d 7 -p tcp -e 1540 -c 2 -a 0 -i 18 -k RTR
+ -t 0.282880662 -s 8 -d 7 -p tcp -e 1540 -c 2 -a 0 -i 19 -k RTR 
- -t 0.282880662 -s 8 -d 7 -p tcp -e 1540 -c 2 -a 0 -i 19 -k RTR
h -t 0.282880662 -s 8 -d 7 -p tcp -e 1540 -c 2 -a 0 -i 19 -k RTR
r -t 0.296785526 -s 7 -d 7 -p tcp -e 1540 -c 2 -a 0 -i 16 -k AGT
+ -t 0.296785526 -s 7 -d -1 -p ack -e 40 -c 2 -a 0 -i 24 -k AGT 
- -t 0.296785526 -s 7 -d -1 -p ack -e 40 -c 2 -a 0 -i 24 -k AGT
h -t 0.296785526 -s 7 -d -1 -p ack -e 40 -c 2 -a 0 -i 24 -k AGT
+ -t 0.296785526 -s 7 -d 8 -p ack -e 40 -c 2 -a 0 -i 24 -k RTR 
- -t 0.296785526 -s 7 -d 8 -p ack -e 40 -c 2 -a 0 -i 24 -k RTR
h -t 0.296785526 -s 7 -d 8 -p ack -e 40 -c 2 -a 0 -i 24 -k RTR
+ -t 0.298650390 -s 8 -d 2 -p ack -e 40 -c 2 -a 0 -i 21 -k RTR 
- -t 0.298650390 -s 8 -d 2 -p ack -e 40 -c 2 -a 0 -i 21 -k RTR
h -t 0.298650390 -s 8 -d 2 -p ack -e 40 -c 2 -a 0 -i 21 -k RTR
r -t 0.312535254 -s 7 -d 7 -p tcp -e 1540 -c 2 -a 0 -i 17 -k AGT
+ -t 0.312535254 -s 7 -d -1 -p ack -e 40 -c 2 -a 0 -i 25 -k AGT 
- -t 0.312535254 -s 7 -d -1 -p ack -e 40 -c 2 -a 0 -i 25 -k AGT
h -t 0.312535254 -s 7 -d -1 -p ack -e 40 -c 2 -a 0 -i 25 -k AGT
+ -t 0.312535254 -s 7 -d 8 -p ack -e 40 -c 2 -a 0 -i 25 -k RTR 
- -t 0.312535254 -s 7 -d 8 -p ack -e 40 -c 2 -a 0 -i 25 -k RTR
h -t 0.312535254 -s 7 -d 8 -p ack -e 40 -c 2 -a 0 -i 25 -k RTR
r -t 0.314715756 -s 5 -d -1 -p AODV -e 48 -c 2 -a 0 -i 0 -k RTR
+ -t 0.328612076 -s 8 -d 7 -p tcp -e 1540 -c 2 -a 0 -i 22 -k RTR 
- -t 0.328612076 -s 8 -d 7 -p tcp -e 1540 -c 2 -a 0 -i 22 -k RTR
h -t 0.328612076 -s 8 -d 7 -p tcp -e 1540 -c 2 -a 0 -i 22 -k RTR
+ -t 0.342558965 -s 8 -d 7 -p tcp -e 1540 -c 2 -a 0 -i 23 -k RTR 
- -t 0.342558965 -s 8 -d 7 -p tcp -e 1540 -c 2 -a 0 -i 23 -k RTR
h -t 0.342558965 -s 8 -d 7 -p tcp -e 1540 -c 2 -a 0 -i 23 -k RTR
r -t 0.356823829 -s 7 -d 7 -p tcp -e 1540 -c 2 -a 0 -i 18 -k AGT
+ -t 0.356823829 -s 7 -d -1 -p ack -e 40 -c 2 -a 0 -i 26 -k AGT 
- -t 0.356823829 -s 7 -d -1 -p ack -e 40 -c 2 -a 0 -i 26 -k AGT
h -t 0.356823829 -s 7 -d -1 -p ack -e 40 -c 2 -a 0 -i 26 -k AGT
+ -t 0.356823829 -s 7 -d 8 -p ack -e 40 -c 2 -a 0 -i 26 -k RTR 
- -t 0.356823829 -s 7 -d 8 -p ack -e 40 -c 2 -a 0 -i 26 -k RTR
h -t 0.356823829 -s 7 -d 8 -p ack -e 40 -c 2 -a 0 -i 26 -k RTR
+ -t 0.358868693 -s 8 -d 2 -p ack -e 40 -c 2 -a 0 -i 24 -k RTR 
- -t 0.358868693 -s 8 -d 2 -p ack -e 40 -c 2 -a 0 -i 24 -k RTR
h -t 0.358868693 -s 8 -d 2 -p ack -e 40 -c 2 -a 0 -i 24 -k RTR
+ -t 0.360813845 -s 8 -d 2 -p ack -e 40 -c 2 -a 0 -i 25 -k RTR 
- -t 0.360813845 -s 8 -d 2 -p ack -e 40 -c 2 -a 0 -i 25 -k RTR
h -t 0.360813845 -s 8 -d 2 -p ack -e 40 -c 2 -a 0 -i 25 -k RTR
r -t 0.374898708 -s 7 -d 7 -p tcp -e 1540 -c 2 -a 0 -i 19 -k AGT
+ -t 0.374898708 -s 7 -d -1 -p ack -e 40 -c 2 -a 0 -i 27 -k AGT 
- -t 0.374898708 -s 7 -d -1 -p ack -e 40 -c 2 -a 0 -i 27 -k AGT
h -t 0.374898708 -s 7 -d -1 -p ack -e 40 -c 2 -a 0 -i 27 -k AGT
+ -t 0.374898708 -s 7 -d 8 -p ack -e 40 -c 2 -a 0 -i 27 -k RTR 
- -t 0.374898708 -s 7 -d 8 -p ack -e 40 -c 2 -a 0 -i 27 -k RTR
h -t 0.374898708 -s 7 -d 8 -p ack -e 40 -c 2 -a 0 -i 27 -k RTR
+ -t 0.377083572 -s 8 -d 2 -p ack -e 40 -c 2 -a 0 -i 26 -k RTR 
- -t 0.377083572 -s 8 -d 2 -p ack -e 40 -c 2 -a 0 -i 26 -k RTR
h -t 0.377083572 -s 8 -d 2 -p ack -e 40 -c 2 -a 0 -i 26 -k RTR
r -t 0.378989739 -s 2 -d 2 -p ack -e 40 -c 2 -a 0 -i 21 -k AGT
+ -t 0.378989739 -s 2 -d -1 -p tcp -e 1540 -c 2 -a 0 -i 28 -k AGT 
- -t 0.378989739 -s 2 -d -1 -p tcp -e 1540 -c 2 -a 0 -i 28 -k AGT
h -t 0.378989739 -s 2 -d -1 -p tcp -e 1540 -c 2 -a 0 -i 28 -k AGT
+ -t 0.378989739 -s 2 -d -1 -p tcp -e 1540 -c 2 -a 0 -i 29 -k AGT 
- -t 0.378989739 -s 2 -d -1 -p tcp -e 1540 -c 2 -a 0 -i 29 -k AGT
h -t 0.378989739 -s 2 -d -1 -p tcp -e 1540 -c 2 -a 0 -i 29 -k AGT
+ -t 0.378989739 -s 2 -d 8 -p tcp -e 1540 -c 2 -a 0 -i 28 -k RTR 
- -t 0.378989739 -s 2 -d 8 -p tcp -e 1540 -c 2 -a 0 -i 28 -k RTR
h -t 0.378989739 -s 2 -d 8 -p tcp -e 1540 -c 2 -a 0 -i 28 -k RTR
+ -t 0.378989739 -s 2 -d 8 -p tcp -e 1540 -c 2 -a 0 -i 29 -k RTR 
- -t 0.378989739 -s 2 -d 8 -p tcp -e 1540 -c 2 -a 0 -i 29 -k RTR
h -t 0.378989739 -s 2 -d 8 -p tcp -e 1540 -c 2 -a 0 -i 29 -k RTR
r -t 0.394201325 -s 7 -d 7 -p tcp -e 1540 -c 2 -a 0 -i 22 -k AGT
+ -t 0.394201325 -s 7 -d -1 -p ack -e 40 -c 2 -a 0 -i 30 -k AGT 
- -t 0.394201325 -s 7 -d -1 -p ack -e 40 -c 2 -a 0 -i 30 -k AGT
h -t 0.394201325 -s 7 -d -1 -p ack -e 40 -c 2 -a 0 -i 30 -k AGT
+ -t 0.394201325 -s 7 -d 8 -p ack -e 40 -c 2 -a 0 -i 30 -k RTR 
- -t 0.394201325 -s 7 -d 8 -p ack -e 40 -c 2 -a 0 -i 30 -k RTR
h -t 0.394201325 -s 7 -d 8 -p ack -e 40 -c 2 -a 0 -i 30 -k RTR
r -t 0.408066477 -s 7 -d 7 -p tcp -e 1540 -c 2 -a 0 -i 23 -k AGT
+ -t 0.408066477 -s 7 -d -1 -p ack -e 40 -c 2 -a 0 -i 31 -k AGT 
- -t 0.408066477 -s 7 -d -1 -p ack -e 40 -c 2 -a 0 -i 31 -k AGT
h -t 0.408066477 -s 7 -d -1 -p ack -e 40 -c 2 -a 0 -i 31 -k AGT
+ -t 0.408066477 -s 7 -d 8 -p ack -e 40 -c 2 -a 0 -i 31 -k RTR 
- -t 0.408066477 -s 7 -d 8 -p ack -e 40 -c 2 -a 0 -i 31 -k RTR
h -t 0.408066477 -s 7 -d 8 -p ack -e 40 -c 2 -a 0 -i 31 -k RTR
+ -t 0.410011341 -s 8 -d 2 -p ack -e 40 -c 2 -a 0 -i 27 -k RTR 
- -t 0.410011341 -s 8 -d 2 -p ack -e 40 -c 2 -a 0 -i 27 -k RTR
h -t 0.410011341 -s 8 -d 2 -p ack -e 40 -c 2 -a 0 -i 27 -k RTR
+ -t 0.412056492 -s 8 -d 2 -p ack -e 40 -c 2 -a 0 -i 30 -k RTR 
- -t 0.412056492 -s 8 -d 2 -p ack -e 40 -c 2 -a 0 -i 30 -k RTR
h -t 0.412056492 -s 8 -d 2 -p ack -e 40 -c 2 -a 0 -i 30 -k RTR
+ -t 0.414061644 -s 8 -d 2 -p ack -e 40 -c 2 -a 0 -i 31 -k RTR 
- -t 0.414061644 -s 8 -d 2 -p ack -e 40 -c 2 -a 0 -i 31 -k RTR
h -t 0.414061644 -s 8 -d 2 -p ack -e 40 -c 2 -a 0 -i 31 -k RTR
r -t 0.415947811 -s 2 -d 2 -p ack -e 40 -c 2 -a 0 -i 24 -k AGT
+ -t 0.415947811 -s 2 -d -1 -p tcp -e 1540 -c 2 -a 0 -i 32 -k AGT 
- -t 0.415947811 -s 2 -d -1 -p tcp -e 1540 -c 2 -a 0 -i 32 -k AGT
h -t 0.415947811 -s 2 -d -1 -p tcp -e 1540 -c 2 -a 0 -i 32 -k AGT
+ -t 0.415947811 -s 2 -d -1 -p tcp -e 1540 -c 2 -a 0 -i 33 -k AGT 
- -t 0.415947811 -s 2 -d -1 -p tcp -e 1540 -c 2 -a 0 -i 33 -k AGT
h -t 0.415947811 -s 2 -d -1 -p tcp -e 1540 -c 2 -a 0 -i 33 -k AGT
+ -t 0.415947811 -s 2 -d 8 -p tcp -e 1540 -c 2 -a 0 -i 32 -k RTR 
- -t 0.415947811 -s 2 -d 8 -p tcp -e 1540 -c 2 -a 0 -i 32 -k RTR
h -t 0.415947811 -s 2 -d 8 -p tcp -e 1540 -c 2 -a 0 -i 32 -k RTR
+ -t 0.415947811 -s 2 -d 8 -p tcp -e 1540 -c 2 -a 0 -i 33 -k RTR 
- -t 0.415947811 -s 2 -d 8 -p tcp -e 1540 -c 2 -a 0 -i 33 -k RTR
h -t 0.415947811 -s 2 -d 8 -p tcp -e 1540 -c 2 -a 0 -i 33 -k RTR
+ -t 0.429873978 -s 8 -d 7 -p tcp -e 1540 -c 2 -a 0 -i 28 -k RTR 
- -t 0.429873978 -s 8 -d 7 -p tcp -e 1540 -c 2 -a 0 -i 28 -k RTR
h -t 0.429873978 -s 8 -d 7 -p tcp -e 1540 -c 2 -a 0 -i 28 -k RTR
r -t 0.432060145 -s 2 -d 2 -p ack -e 40 -c 2 -a 0 -i 25 -k AGT
+ -t 0.432060145 -s 2 -d -1 -p tcp -e 1540 -c 2 -a 0 -i 34 -k AGT 
- -t 0.432060145 -s 2 -d -1 -p tcp -e 1540 -c 2 -a 0 -i 34 -k AGT
h -t 0.432060145 -s 2 -d -1 -p tcp -e 1540 -c 2 -a 0 -i 34 -k AGT
+ -t 0.432060145 -s 2 -d -1 -p tcp -e 1540 -c 2 -a 0 -i 35 -k AGT 
- -t 0.432060145 -s 2 -d -1 -p tcp -e 1540 -c 2 -a 0 -i 35 -k AGT
h -t 0.432060145 -s 2 -d -1 -p tcp -e 1540 -c 2 -a 0 -i 35 -k AGT
+ -t 0.432060145 -s 2 -d 8 -p tcp -e 1540 -c 2 -a 0 -i 34 -k RTR 
- -t 0.432060145 -s 2 -d 8 -p tcp -e 1540 -c 2 -a 0 -i 34 -k RTR
h -t 0.432060145 -s 2 -d 8 -p tcp -e 1540 -c 2 -a 0 -i 34 -k RTR
+ -t 0.432060145 -s 2 -d 8 -p tcp -e 1540 -c 2 -a 0 -i 35 -k RTR 
- -t 0.432060145 -s 2 -d 8 -p tcp -e 1540 -c 2 -a 0 -i 35 -k RTR
h -t 0.432060145 -s 2 -d 8 -p tcp -e 1540 -c 2 -a 0 -i 35 -k RTR
+ -t 0.445926311 -s 8 -d 7 -p tcp -e 1540 -c 2 -a 0 -i 29 -k RTR 
- -t 0.445926311 -s 8 -d 7 -p tcp -e 1540 -c 2 -a 0 -i 29 -k RTR
h -t 0.445926311 -s 8 -d 7 -p tcp -e 1540 -c 2 -a 0 -i 29 -k RTR
r -t 0.447852478 -s 2 -d 2 -p ack -e 40 -c 2 -a 0 -i 26 -k AGT
+ -t 0.447852478 -s 2 -d -1 -p tcp -e 1540 -c 2 -a 0 -i 36 -k AGT 
- -t 0.447852478 -s 2 -d -1 -p tcp -e 1540 -c 2 -a 0 -i 36 -k AGT
h -t 0.447852478 -s 2 -d -1 -p tcp -e 1540 -c 2 -a 0 -i 36 -k AGT
+ -t 0.447852478 -s 2 -d -1 -p tcp -e 1540 -c 2 -a 0 -i 37 -k AGT 
- -t 0.447852478 -s 2 -d -1 -p tcp -e 1540 -c 2 -a 0 -i 37 -k AGT
h -t 0.447852478 -s 2 -d -1 -p tcp -e 1540 -c 2 -a 0 -i 37 -k AGT
+ -t 0.447852478 -s 2 -d 8 -p tcp -e 1540 -c 2 -a 0 -i 36 -k RTR 
- -t 0.447852478 -s 2 -d 8 -p tcp -e 1540 -c 2 -a 0 -i 36 -k RTR
h -t 0.447852478 -s 2 -d 8 -p tcp -e 1540 -c 2 -a 0 -i 36 -k RTR
+ -t 0.447852478 -s 2 -d 8 -p tcp -e 1540 -c 2 -a 0 -i 37 -k RTR 
- -t 0.447852478 -s 2 -d 8 -p tcp -e 1540 -c 2 -a 0 -i 37 -k RTR
h -t 0.447852478 -s 2 -d 8 -p tcp -e 1540 -c 2 -a 0 -i 37 -k RTR
+ -t 0.461758645 -s 8 -d 7 -p tcp -e 1540 -c 2 -a 0 -i 32 -k RTR 
- -t 0.461758645 -s 8 -d 7 -p tcp -e 1540 -c 2 -a 0 -i 32 -k RTR
h -t 0.461758645 -s 8 -d 7 -p tcp -e 1540 -c 2 -a 0 -i 32 -k RTR
+ -t 0.475585534 -s 8 -d 7 -p tcp -e 1540 -c 2 -a 0 -i 33 -k RTR 
- -t 0.475585534 -s 8 -d 7 -p tcp -e 1540 -c 2 -a 0 -i 33 -k RTR
h -t 0.475585534 -s 8 -d 7 -p tcp -e 1540 -c 2 -a 0 -i 33 -k RTR
r -t 0.478459146 -s 2 -d 2 -p ack -e 40 -c 2 -a 0 -i 27 -k AGT
+ -t 0.478459146 -s 2 -d -1 -p tcp -e 1540 -c 2 -a 0 -i 38 -k AGT 
- -t 0.478459146 -s 2 -d -1 -p tcp -e 1540 -c 2 -a 0 -i 38 -k AGT
h -t 0.478459146 -s 2 -d -1 -p tcp -e 1540 -c 2 -a 0 -i 38 -k AGT
+ -t 0.478459146 -s 2 -d -1 -p tcp -e 1540 -c 2 -a 0 -i 39 -k AGT 
- -t 0.478459146 -s 2 -d -1 -p tcp -e 1540 -c 2 -a 0 -i 39 -k AGT
h -t 0.478459146 -s 2 -d -1 -p tcp -e 1540 -c 2 -a 0 -i 39 -k AGT
+ -t 0.478459146 -s 2 -d 8 -p tcp -e 1540 -c 2 -a 0 -i 38 -k RTR 
- -t 0.478459146 -s 2 -d 8 -p tcp -e 1540 -c 2 -a 0 -i 38 -k RTR
h -t 0.478459146 -s 2 -d 8 -p tcp -e 1540 -c 2 -a 0 -i 38 -k RTR
+ -t 0.478459146 -s 2 -d 8 -p tcp -e 1540 -c 2 -a 0 -i 39 -k RTR 
- -t 0.478459146 -s 2 -d 8 -p tcp -e 1540 -c 2 -a 0 -i 39 -k RTR
h -t 0.478459146 -s 2 -d 8 -p tcp -e 1540 -c 2 -a 0 -i 39 -k RTR
r -t 0.480706035 -s 2 -d 2 -p ack -e 40 -c 2 -a 0 -i 30 -k AGT
+ -t 0.480706035 -s 2 -d -1 -p tcp -e 1540 -c 2 -a 0 -i 40 -k AGT 
- -t 0.480706035 -s 2 -d -1 -p tcp -e 1540 -c 2 -a 0 -i 40 -k AGT
h -t 0.480706035 -s 2 -d -1 -p tcp -e 1540 -c 2 -a 0 -i 40 -k AGT
+ -t 0.480706035 -s 2 -d -1 -p tcp -e 1540 -c 2 -a 0 -i 41 -k AGT 
- -t 0.480706035 -s 2 -d -1 -p tcp -e 1540 -c 2 -a 0 -i 41 -k AGT
h -t 0.480706035 -s 2 -d -1 -p tcp -e 1540 -c 2 -a 0 -i 41 -k AGT
+ -t 0.480706035 -s 2 -d 8 -p tcp -e 1540 -c 2 -a 0 -i 40 -k RTR 
- -t 0.480706035 -s 2 -d 8 -p tcp -e 1540 -c 2 -a 0 -i 40 -k RTR
h -t 0.480706035 -s 2 -d 8 -p tcp -e 1540 -c 2 -a 0 -i 40 -k RTR
+ -t 0.480706035 -s 2 -d 8 -p tcp -e 1540 -c 2 -a 0 -i 41 -k RTR 
- -t 0.480706035 -s 2 -d 8 -p tcp -e 1540 -c 2 -a 0 -i 41 -k RTR
h -t 0.480706035 -s 2 -d 8 -p tcp -e 1540 -c 2 -a 0 -i 41 -k RTR
+ -t 0.494812202 -s 8 -d 7 -p tcp -e 1540 -c 2 -a 0 -i 34 -k RTR 
- -t 0.494812202 -s 8 -d 7 -p tcp -e 1540 -c 2 -a 0 -i 34 -k RTR
h -t 0.494812202 -s 8 -d 7 -p tcp -e 1540 -c 2 -a 0 -i 34 -k RTR
r -t 0.496858369 -s 2 -d 2 -p ack -e 40 -c 2 -a 0 -i 31 -k AGT
+ -t 0.496858369 -s 2 -d -1 -p tcp -e 1540 -c 2 -a 0 -i 42 -k AGT 
- -t 0.496858369 -s 2 -d -1 -p tcp -e 1540 -c 2 -a 0 -i 42 -k AGT
h -t 0.496858369 -s 2 -d -1 -p tcp -e 1540 -c 2 -a 0 -i 42 -k AGT
+ -t 0.496858369 -s 2 -d -1 -p tcp -e 1540 -c 2 -a 0 -i 43 -k AGT 
- -t 0.496858369 -s 2 -d -1 -p tcp -e 1540 -c 2 -a 0 -i 43 -k AGT
h -t 0.496858369 -s 2 -d -1 -p tcp -e 1540 -c 2 -a 0 -i 43 -k AGT
+ -t 0.496858369 -s 2 -d 8 -p tcp -e 1540 -c 2 -a 0 -i 42 -k RTR 
- -t 0.496858369 -s 2 -d 8 -p tcp -e 1540 -c 2 -a 0 -i 42 -k RTR
h -t 0.496858369 -s 2 -d 8 -p tcp -e 1540 -c 2 -a 0 -i 42 -k RTR
+ -t 0.496858369 -s 2 -d 8 -p tcp -e 1540 -c 2 -a 0 -i 43 -k RTR 
- -t 0.496858369 -s 2 -d 8 -p tcp -e 1540 -c 2 -a 0 -i 43 -k RTR
h -t 0.496858369 -s 2 -d 8 -p tcp -e 1540 -c 2 -a 0 -i 43 -k RTR
+ -t 0.510804536 -s 8 -d 7 -p tcp -e 1540 -c 2 -a 0 -i 35 -k RTR 
- -t 0.510804536 -s 8 -d 7 -p tcp -e 1540 -c 2 -a 0 -i 35 -k RTR
h -t 0.510804536 -s 8 -d 7 -p tcp -e 1540 -c 2 -a 0 -i 35 -k RTR
+ -t 0.524651425 -s 8 -d 7 -p tcp -e 1540 -c 2 -a 0 -i 36 -k RTR 
- -t 0.524651425 -s 8 -d 7 -p tcp -e 1540 -c 2 -a 0 -i 36 -k RTR
h -t 0.524651425 -s 8 -d 7 -p tcp -e 1540 -c 2 -a 0 -i 36 -k RTR
r -t 0.538496289 -s 7 -d 7 -p tcp -e 1540 -c 2 -a 0 -i 28 -k AGT
+ -t 0.538496289 -s 7 -d -1 -p ack -e 40 -c 2 -a 0 -i 44 -k AGT 
- -t 0.538496289 -s 7 -d -1 -p ack -e 40 -c 2 -a 0 -i 44 -k AGT
h -t 0.538496289 -s 7 -d -1 -p ack -e 40 -c 2 -a 0 -i 44 -k AGT
+ -t 0.538496289 -s 7 -d 8 -p ack -e 40 -c 2 -a 0 -i 44 -k RTR 
- -t 0.538496289 -s 7 -d 8 -p ack -e 40 -c 2 -a 0 -i 44 -k RTR
h -t 0.538496289 -s 7 -d 8 -p ack -e 40 -c 2 -a 0 -i 44 -k RTR
r -t 0.552321440 -s 7 -d 7 -p tcp -e 1540 -c 2 -a 0 -i 29 -k AGT
+ -t 0.552321440 -s 7 -d -1 -p ack -e 40 -c 2 -a 0 -i 45 -k AGT 
- -t 0.552321440 -s 7 -d -1 -p ack -e 40 -c 2 -a 0 -i 45 -k AGT
h -t 0.552321440 -s 7 -d -1 -p ack -e 40 -c 2 -a 0 -i 45 -k AGT
+ -t 0.552321440 -s 7 -d 8 -p ack -e 40 -c 2 -a 0 -i 45 -k RTR 
- -t 0.552321440 -s 7 -d 8 -p ack -e 40 -c 2 -a 0 -i 45 -k RTR
h -t 0.552321440 -s 7 -d 8 -p ack -e 40 -c 2 -a 0 -i 45 -k RTR
r -t 0.566206592 -s 7 -d 7 -p tcp -e 1540 -c 2 -a 0 -i 32 -k AGT
+ -t 0.566206592 -s 7 -d -1 -p ack -e 40 -c 2 -a 0 -i 46 -k AGT 
- -t 0.566206592 -s 7 -d -1 -p ack -e 40 -c 2 -a 0 -i 46 -k AGT
h -t 0.566206592 -s 7 -d -1 -p ack -e 40 -c 2 -a 0 -i 46 -k AGT
+ -t 0.566206592 -s 7 -d 8 -p ack -e 40 -c 2 -a 0 -i 46 -k RTR 
- -t 0.566206592 -s 7 -d 8 -p ack -e 40 -c 2 -a 0 -i 46 -k RTR
h -t 0.566206592 -s 7 -d 8 -p ack -e 40 -c 2 -a 0 -i 46 -k RTR
+ -t 0.568071456 -s 8 -d 2 -p ack -e 40 -c 2 -a 0 -i 44 -k RTR 
- -t 0.568071456 -s 8 -d 2 -p ack -e 40 -c 2 -a 0 -i 44 -k RTR
h -t 0.568071456 -s 8 -d 2 -p ack -e 40 -c 2 -a 0 -i 44 -k RTR
+ -t 0.582188227 -s 8 -d 7 -p tcp -e 1540 -c 2 -a 0 -i 37 -k RTR 
- -t 0.582188227 -s 8 -d 7 -p tcp -e 1540 -c 2 -a 0 -i 37 -k RTR
h -t 0.582188227 -s 8 -d 7 -p tcp -e 1540 -c 2 -a 0 -i 37 -k RTR
r -t 0.596213091 -s 7 -d 7 -p tcp -e 1540 -c 2 -a 0 -i 33 -k AGT
+ -t 0.596213091 -s 7 -d -1 -p ack -e 40 -c 2 -a 0 -i 47 -k AGT 
- -t 0.596213091 -s 7 -d -1 -p ack -e 40 -c 2 -a 0 -i 47 -k AGT
h -t 0.596213091 -s 7 -d -1 -p ack -e 40 -c 2 -a 0 -i 47 -k AGT
+ -t 0.596213091 -s 7 -d 8 -p ack -e 40 -c 2 -a 0 -i 47 -k RTR 
- -t 0.596213091 -s 7 -d 8 -p ack -e 40 -c 2 -a 0 -i 47 -k RTR
h -t 0.596213091 -s 7 -d 8 -p ack -e 40 -c 2 -a 0 -i 47 -k RTR
r -t 0.610058243 -s 7 -d 7 -p tcp -e 1540 -c 2 -a 0 -i 34 -k AGT
+ -t 0.610058243 -s 7 -d -1 -p ack -e 40 -c 2 -a 0 -i 48 -k AGT 
- -t 0.610058243 -s 7 -d -1 -p ack -e 40 -c 2 -a 0 -i 48 -k AGT
h -t 0.610058243 -s 7 -d -1 -p ack -e 40 -c 2 -a 0 -i 48 -k AGT
+ -t 0.610058243 -s 7 -d 8 -p ack -e 40 -c 2 -a 0 -i 48 -k RTR 