n -t * -s 0  -x 914 -y 367 -Z 0 -z 25  -v circle -c black
n -t * -s 1  -x 369 -y 803 -Z 0 -z 25  -v circle -c black
n -t * -s 2  -x 49 -y 102 -Z 0 -z 25  -v circle -c black
n -t * -s 3  -x 117 -y 309 -Z 0 -z 25  -v circle -c black
n -t * -s 4  -x 971 -y 486 -Z 0 -z 25  -v circle -c black
n -t * -s 5  -x 873 -y 514 -Z 0 -z 25  -v circle -c black
n -t * -s 6  -x 163 -y 83 -Z 0 -z 25  -v circle -c black
n -t * -s 7  -x 778 -y 969 -Z 0 -z 25  -v circle -c black
n -t * -s 8  -x 13 -y 926 -Z 0 -z 25  -v circle -c black
n -t * -s 9  -x 815 -y 658 -Z 0 -z 25  -v circle -c black
V -t * -v 1.0a5 -a 0
W -t * -x 1000 -y 1000
A -t * -n 1 -p 0 -o 0x7fffffff -c 30 -a 1
A -t * -h 1 -m 1073741823 -s 0
+ -t 0.010000000 -s 0 -d -1 -p tcp -e 40 -c 2 -a 0 -i 0 -k AGT 
- -t 0.010000000 -s 0 -d -1 -p tcp -e 40 -c 2 -a 0 -i 0 -k AGT
h -t 0.010000000 -s 0 -d -1 -p tcp -e 40 -c 2 -a 0 -i 0 -k AGT
+ -t 0.010000000 -s 0 -d -1 -p AODV -e 48 -c 2 -a 0 -i 0 -k RTR 
- -t 0.010000000 -s 0 -d -1 -p AODV -e 48 -c 2 -a 0 -i 0 -k RTR
h -t 0.010000000 -s 0 -d -1 -p AODV -e 48 -c 2 -a 0 -i 0 -k RTR
r -t 0.010988440 -s 4 -d -1 -p AODV -e 48 -c 2 -a 0 -i 0 -k RTR
+ -t 0.010988440 -s 4 -d 0 -p AODV -e 44 -c 2 -a 0 -i 0 -k RTR 
- -t 0.010988440 -s 4 -d 0 -p AODV -e 44 -c 2 -a 0 -i 0 -k RTR
h -t 0.010988440 -s 4 -d 0 -p AODV -e 44 -c 2 -a 0 -i 0 -k RTR
r -t 0.010988509 -s 5 -d -1 -p AODV -e 48 -c 2 -a 0 -i 0 -k RTR
+ -t 0.011869735 -s 5 -d -1 -p AODV -e 48 -c 2 -a 0 -i 0 -k RTR 
- -t 0.011869735 -s 5 -d -1 -p AODV -e 48 -c 2 -a 0 -i 0 -k RTR
h -t 0.011869735 -s 5 -d -1 -p AODV -e 48 -c 2 -a 0 -i 0 -k RTR
r -t 0.012975119 -s 4 -d -1 -p AODV -e 48 -c 2 -a 0 -i 0 -k RTR
r -t 0.012975288 -s 0 -d -1 -p AODV -e 48 -c 2 -a 0 -i 0 -k RTR
r -t 0.012975297 -s 9 -d -1 -p AODV -e 48 -c 2 -a 0 -i 0 -k RTR
+ -t 0.015321315 -s 9 -d -1 -p AODV -e 48 -c 2 -a 0 -i 0 -k RTR 
- -t 0.015321315 -s 9 -d -1 -p AODV -e 48 -c 2 -a 0 -i 0 -k RTR
h -t 0.015321315 -s 9 -d -1 -p AODV -e 48 -c 2 -a 0 -i 0 -k RTR
+ -t 0.016827927 -s 0 -d 4 -p tcp -e 40 -c 2 -a 0 -i 0 -k RTR 
- -t 0.016827927 -s 0 -d 4 -p tcp -e 40 -c 2 -a 0 -i 0 -k RTR
h -t 0.016827927 -s 0 -d 4 -p tcp -e 40 -c 2 -a 0 -i 0 -k RTR
r -t 0.018693247 -s 4 -d 4 -p tcp -e 40 -c 2 -a 0 -i 0 -k AGT
+ -t 0.018693247 -s 4 -d -1 -p ack -e 40 -c 2 -a 0 -i 1 -k AGT 
- -t 0.018693247 -s 4 -d -1 -p ack -e 40 -c 2 -a 0 -i 1 -k AGT
h -t 0.018693247 -s 4 -d -1 -p ack -e 40 -c 2 -a 0 -i 1 -k AGT
+ -t 0.018693247 -s 4 -d 0 -p ack -e 40 -c 2 -a 0 -i 1 -k RTR 
- -t 0.018693247 -s 4 -d 0 -p ack -e 40 -c 2 -a 0 -i 1 -k RTR
h -t 0.018693247 -s 4 -d 0 -p ack -e 40 -c 2 -a 0 -i 1 -k RTR
r -t 0.020196349 -s 5 -d -1 -p AODV -e 48 -c 2 -a 0 -i 0 -k RTR
r -t 0.020196605 -s 4 -d -1 -p AODV -e 48 -c 2 -a 0 -i 0 -k RTR
r -t 0.021947925 -s 0 -d 0 -p ack -e 40 -c 2 -a 0 -i 1 -k AGT
+ -t 0.021947925 -s 0 -d -1 -p tcp -e 1540 -c 2 -a 0 -i 2 -k AGT 
- -t 0.021947925 -s 0 -d -1 -p tcp -e 1540 -c 2 -a 0 -i 2 -k AGT
h -t 0.021947925 -s 0 -d -1 -p tcp -e 1540 -c 2 -a 0 -i 2 -k AGT
+ -t 0.021947925 -s 0 -d -1 -p tcp -e 1540 -c 2 -a 0 -i 3 -k AGT 
- -t 0.021947925 -s 0 -d -1 -p tcp -e 1540 -c 2 -a 0 -i 3 -k AGT
h -t 0.021947925 -s 0 -d -1 -p tcp -e 1540 -c 2 -a 0 -i 3 -k AGT
+ -t 0.021947925 -s 0 -d 4 -p tcp -e 1540 -c 2 -a 0 -i 2 -k RTR 
- -t 0.021947925 -s 0 -d 4 -p tcp -e 1540 -c 2 -a 0 -i 2 -k RTR
h -t 0.021947925 -s 0 -d 4 -p tcp -e 1540 -c 2 -a 0 -i 2 -k RTR
+ -t 0.021947925 -s 0 -d 4 -p tcp -e 1540 -c 2 -a 0 -i 3 -k RTR 
- -t 0.021947925 -s 0 -d 4 -p tcp -e 1540 -c 2 -a 0 -i 3 -k RTR
h -t 0.021947925 -s 0 -d 4 -p tcp -e 1540 -c 2 -a 0 -i 3 -k RTR
r -t 0.036013244 -s 4 -d 4 -p tcp -e 1540 -c 2 -a 0 -i 2 -k AGT
+ -t 0.036013244 -s 4 -d -1 -p ack -e 40 -c 2 -a 0 -i 4 -k AGT 
- -t 0.036013244 -s 4 -d -1 -p ack -e 40 -c 2 -a 0 -i 4 -k AGT
h -t 0.036013244 -s 4 -d -1 -p ack -e 40 -c 2 -a 0 -i 4 -k AGT
+ -t 0.036013244 -s 4 -d 0 -p ack -e 40 -c 2 -a 0 -i 4 -k RTR 
- -t 0.036013244 -s 4 -d 0 -p ack -e 40 -c 2 -a 0 -i 4 -k RTR
h -t 0.036013244 -s 4 -d 0 -p ack -e 40 -c 2 -a 0 -i 4 -k RTR
r -t 0.050179004 -s 4 -d 4 -p tcp -e 1540 -c 2 -a 0 -i 3 -k AGT
+ -t 0.050179004 -s 4 -d -1 -p ack -e 40 -c 2 -a 0 -i 5 -k AGT 
- -t 0.050179004 -s 4 -d -1 -p ack -e 40 -c 2 -a 0 -i 5 -k AGT
h -t 0.050179004 -s 4 -d -1 -p ack -e 40 -c 2 -a 0 -i 5 -k AGT
+ -t 0.050179004 -s 4 -d 0 -p ack -e 40 -c 2 -a 0 -i 5 -k RTR 
- -t 0.050179004 -s 4 -d 0 -p ack -e 40 -c 2 -a 0 -i 5 -k RTR
h -t 0.050179004 -s 4 -d 0 -p ack -e 40 -c 2 -a 0 -i 5 -k RTR
r -t 0.052144323 -s 0 -d 0 -p ack -e 40 -c 2 -a 0 -i 4 -k AGT
+ -t 0.052144323 -s 0 -d -1 -p tcp -e 1540 -c 2 -a 0 -i 6 -k AGT 
- -t 0.052144323 -s 0 -d -1 -p tcp -e 1540 -c 2 -a 0 -i 6 -k AGT
h -t 0.052144323 -s 0 -d -1 -p tcp -e 1540 -c 2 -a 0 -i 6 -k AGT
+ -t 0.052144323 -s 0 -d -1 -p tcp -e 1540 -c 2 -a 0 -i 7 -k AGT 
- -t 0.052144323 -s 0 -d -1 -p tcp -e 1540 -c 2 -a 0 -i 7 -k AGT
h -t 0.052144323 -s 0 -d -1 -p tcp -e 1540 -c 2 -a 0 -i 7 -k AGT
+ -t 0.052144323 -s 0 -d 4 -p tcp -e 1540 -c 2 -a 0 -i 6 -k RTR 
- -t 0.052144323 -s 0 -d 4 -p tcp -e 1540 -c 2 -a 0 -i 6 -k RTR
h -t 0.052144323 -s 0 -d 4 -p tcp -e 1540 -c 2 -a 0 -i 6 -k RTR
+ -t 0.052144323 -s 0 -d 4 -p tcp -e 1540 -c 2 -a 0 -i 7 -k RTR 
- -t 0.052144323 -s 0 -d 4 -p tcp -e 1540 -c 2 -a 0 -i 7 -k RTR
h -t 0.052144323 -s 0 -d 4 -p tcp -e 1540 -c 2 -a 0 -i 7 -k RTR
r -t 0.066149643 -s 4 -d 4 -p tcp -e 1540 -c 2 -a 0 -i 6 -k AGT
+ -t 0.066149643 -s 4 -d -1 -p ack -e 40 -c 2 -a 0 -i 8 -k AGT 
- -t 0.066149643 -s 4 -d -1 -p ack -e 40 -c 2 -a 0 -i 8 -k AGT
h -t 0.066149643 -s 4 -d -1 -p ack -e 40 -c 2 -a 0 -i 8 -k AGT
+ -t 0.066149643 -s 4 -d 0 -p ack -e 40 -c 2 -a 0 -i 8 -k RTR 
- -t 0.066149643 -s 4 -d 0 -p ack -e 40 -c 2 -a 0 -i 8 -k RTR
h -t 0.066149643 -s 4 -d 0 -p ack -e 40 -c 2 -a 0 -i 8 -k RTR
r -t 0.068014962 -s 0 -d 0 -p ack -e 40 -c 2 -a 0 -i 5 -k AGT
+ -t 0.068014962 -s 0 -d -1 -p tcp -e 1540 -c 2 -a 0 -i 9 -k AGT 
- -t 0.068014962 -s 0 -d -1 -p tcp -e 1540 -c 2 -a 0 -i 9 -k AGT
h -t 0.068014962 -s 0 -d -1 -p tcp -e 1540 -c 2 -a 0 -i 9 -k AGT
+ -t 0.068014962 -s 0 -d -1 -p tcp -e 1540 -c 2 -a 0 -i 10 -k AGT 
- -t 0.068014962 -s 0 -d -1 -p tcp -e 1540 -c 2 -a 0 -i 10 -k AGT
h -t 0.068014962 -s 0 -d -1 -p tcp -e 1540 -c 2 -a 0 -i 10 -k AGT
+ -t 0.068014962 -s 0 -d 4 -p tcp -e 1540 -c 2 -a 0 -i 9 -k RTR 
- -t 0.068014962 -s 0 -d 4 -p tcp -e 1540 -c 2 -a 0 -i 9 -k RTR
h -t 0.068014962 -s 0 -d 4 -p tcp -e 1540 -c 2 -a 0 -i 9 -k RTR
+ -t 0.068014962 -s 0 -d 4 -p tcp -e 1540 -c 2 -a 0 -i 10 -k RTR 
- -t 0.068014962 -s 0 -d 4 -p tcp -e 1540 -c 2 -a 0 -i 10 -k RTR
h -t 0.068014962 -s 0 -d 4 -p tcp -e 1540 -c 2 -a 0 -i 10 -k RTR
r -t 0.069860721 -s 0 -d 0 -p ack -e 40 -c 2 -a 0 -i 8 -k AGT
+ -t 0.069860721 -s 0 -d -1 -p tcp -e 1540 -c 2 -a 0 -i 11 -k AGT 
- -t 0.069860721 -s 0 -d -1 -p tcp -e 1540 -c 2 -a 0 -i 11 -k AGT
h -t 0.069860721 -s 0 -d -1 -p tcp -e 1540 -c 2 -a 0 -i 11 -k AGT
+ -t 0.069860721 -s 0 -d -1 -p tcp -e 1540 -c 2 -a 0 -i 12 -k AGT 
- -t 0.069860721 -s 0 -d -1 -p tcp -e 1540 -c 2 -a 0 -i 12 -k AGT
h -t 0.069860721 -s 0 -d -1 -p tcp -e 1540 -c 2 -a 0 -i 12 -k AGT
+ -t 0.069860721 -s 0 -d 4 -p tcp -e 1540 -c 2 -a 0 -i 11 -k RTR 
- -t 0.069860721 -s 0 -d 4 -p tcp -e 1540 -c 2 -a 0 -i 11 -k RTR
h -t 0.069860721 -s 0 -d 4 -p tcp -e 1540 -c 2 -a 0 -i 11 -k RTR
+ -t 0.069860721 -s 0 -d 4 -p tcp -e 1540 -c 2 -a 0 -i 12 -k RTR 
- -t 0.069860721 -s 0 -d 4 -p tcp -e 1540 -c 2 -a 0 -i 12 -k RTR
h -t 0.069860721 -s 0 -d 4 -p tcp -e 1540 -c 2 -a 0 -i 12 -k RTR
r -t 0.083846041 -s 4 -d 4 -p tcp -e 1540 -c 2 -a 0 -i 7 -k AGT
+ -t 0.083846041 -s 4 -d -1 -p ack -e 40 -c 2 -a 0 -i 13 -k AGT 
- -t 0.083846041 -s 4 -d -1 -p ack -e 40 -c 2 -a 0 -i 13 -k AGT
h -t 0.083846041 -s 4 -d -1 -p ack -e 40 -c 2 -a 0 -i 13 -k AGT
+ -t 0.083846041 -s 4 -d 0 -p ack -e 40 -c 2 -a 0 -i 13 -k RTR 
- -t 0.083846041 -s 4 -d 0 -p ack -e 40 -c 2 -a 0 -i 13 -k RTR
h -t 0.083846041 -s 4 -d 0 -p ack -e 40 -c 2 -a 0 -i 13 -k RTR
r -t 0.085751360 -s 0 -d 0 -p ack -e 40 -c 2 -a 0 -i 13 -k AGT
+ -t 0.085751360 -s 0 -d -1 -p tcp -e 1540 -c 2 -a 0 -i 14 -k AGT 
- -t 0.085751360 -s 0 -d -1 -p tcp -e 1540 -c 2 -a 0 -i 14 -k AGT
h -t 0.085751360 -s 0 -d -1 -p tcp -e 1540 -c 2 -a 0 -i 14 -k AGT
+ -t 0.085751360 -s 0 -d -1 -p tcp -e 1540 -c 2 -a 0 -i 15 -k AGT 
- -t 0.085751360 -s 0 -d -1 -p tcp -e 1540 -c 2 -a 0 -i 15 -k AGT
h -t 0.085751360 -s 0 -d -1 -p tcp -e 1540 -c 2 -a 0 -i 15 -k AGT
+ -t 0.085751360 -s 0 -d 4 -p tcp -e 1540 -c 2 -a 0 -i 14 -k RTR 
- -t 0.085751360 -s 0 -d 4 -p tcp -e 1540 -c 2 -a 0 -i 14 -k RTR
h -t 0.085751360 -s 0 -d 4 -p tcp -e 1540 -c 2 -a 0 -i 14 -k RTR
+ -t 0.085751360 -s 0 -d 4 -p tcp -e 1540 -c 2 -a 0 -i 15 -k RTR 
- -t 0.085751360 -s 0 -d 4 -p tcp -e 1540 -c 2 -a 0 -i 15 -k RTR
h -t 0.085751360 -s 0 -d 4 -p tcp -e 1540 -c 2 -a 0 -i 15 -k RTR
r -t 0.099936680 -s 4 -d 4 -p tcp -e 1540 -c 2 -a 0 -i 9 -k AGT
+ -t 0.099936680 -s 4 -d -1 -p ack -e 40 -c 2 -a 0 -i 16 -k AGT 
- -t 0.099936680 -s 4 -d -1 -p ack -e 40 -c 2 -a 0 -i 16 -k AGT
h -t 0.099936680 -s 4 -d -1 -p ack -e 40 -c 2 -a 0 -i 16 -k AGT
+ -t 0.099936680 -s 4 -d 0 -p ack -e 40 -c 2 -a 0 -i 16 -k RTR 
- -t 0.099936680 -s 4 -d 0 -p ack -e 40 -c 2 -a 0 -i 16 -k RTR
h -t 0.099936680 -s 4 -d 0 -p ack -e 40 -c 2 -a 0 -i 16 -k RTR
r -t 0.114162439 -s 4 -d 4 -p tcp -e 1540 -c 2 -a 0 -i 10 -k AGT
+ -t 0.114162439 -s 4 -d -1 -p ack -e 40 -c 2 -a 0 -i 17 -k AGT 
- -t 0.114162439 -s 4 -d -1 -p ack -e 40 -c 2 -a 0 -i 17 -k AGT
h -t 0.114162439 -s 4 -d -1 -p ack -e 40 -c 2 -a 0 -i 17 -k AGT
+ -t 0.114162439 -s 4 -d 0 -p ack -e 40 -c 2 -a 0 -i 17 -k RTR 
- -t 0.114162439 -s 4 -d 0 -p ack -e 40 -c 2 -a 0 -i 17 -k RTR
h -t 0.114162439 -s 4 -d 0 -p ack -e 40 -c 2 -a 0 -i 17 -k RTR
r -t 0.116167759 -s 0 -d 0 -p ack -e 40 -c 2 -a 0 -i 16 -k AGT
+ -t 0.116167759 -s 0 -d -1 -p tcp -e 1540 -c 2 -a 0 -i 18 -k AGT 
- -t 0.116167759 -s 0 -d -1 -p tcp -e 1540 -c 2 -a 0 -i 18 -k AGT
h -t 0.116167759 -s 0 -d -1 -p tcp -e 1540 -c 2 -a 0 -i 18 -k AGT
+ -t 0.116167759 -s 0 -d -1 -p tcp -e 1540 -c 2 -a 0 -i 19 -k AGT 
- -t 0.116167759 -s 0 -d -1 -p tcp -e 1540 -c 2 -a 0 -i 19 -k AGT
h -t 0.116167759 -s 0 -d -1 -p tcp -e 1540 -c 2 -a 0 -i 19 -k AGT
+ -t 0.116167759 -s 0 -d 4 -p tcp -e 1540 -c 2 -a 0 -i 18 -k RTR 
- -t 0.116167759 -s 0 -d 4 -p tcp -e 1540 -c 2 -a 0 -i 18 -k RTR
h -t 0.116167759 -s 0 -d 4 -p tcp -e 1540 -c 2 -a 0 -i 18 -k RTR
+ -t 0.116167759 -s 0 -d 4 -p tcp -e 1540 -c 2 -a 0 -i 19 -k RTR 
- -t 0.116167759 -s 0 -d 4 -p tcp -e 1540 -c 2 -a 0 -i 19 -k RTR
h -t 0.116167759 -s 0 -d 4 -p tcp -e 1540 -c 2 -a 0 -i 19 -k RTR
r -t 0.118353518 -s 0 -d 0 -p ack -e 40 -c 2 -a 0 -i 17 -k AGT
+ -t 0.118353518 -s 0 -d -1 -p tcp -e 1540 -c 2 -a 0 -i 20 -k AGT 
- -t 0.118353518 -s 0 -d -1 -p tcp -e 1540 -c 2 -a 0 -i 20 -k AGT
h -t 0.118353518 -s 0 -d -1 -p tcp -e 1540 -c 2 -a 0 -i 20 -k AGT
+ -t 0.118353518 -s 0 -d -1 -p tcp -e 1540 -c 2 -a 0 -i 21 -k AGT 
- -t 0.118353518 -s 0 -d -1 -p tcp -e 1540 -c 2 -a 0 -i 21 -k AGT
h -t 0.118353518 -s 0 -d -1 -p tcp -e 1540 -c 2 -a 0 -i 21 -k AGT
+ -t 0.118353518 -s 0 -d 4 -p tcp -e 1540 -c 2 -a 0 -i 20 -k RTR 
- -t 0.118353518 -s 0 -d 4 -p tcp -e 1540 -c 2 -a 0 -i 20 -k RTR
h -t 0.118353518 -s 0 -d 4 -p tcp -e 1540 -c 2 -a 0 -i 20 -k RTR
+ -t 0.118353518 -s 0 -d 4 -p tcp -e 1540 -c 2 -a 0 -i 21 -k RTR 
- -t 0.118353518 -s 0 -d 4 -p tcp -e 1540 -c 2 -a 0 -i 21 -k RTR
h -t 0.118353518 -s 0 -d 4 -p tcp -e 1540 -c 2 -a 0 -i 21 -k RTR
r -t 0.132198837 -s 4 -d 4 -p tcp -e 1540 -c 2 -a 0 -i 11 -k AGT
+ -t 0.132198837 -s 4 -d -1 -p ack -e 40 -c 2 -a 0 -i 22 -k AGT 
- -t 0.132198837 -s 4 -d -1 -p ack -e 40 -c 2 -a 0 -i 22 -k AGT
h -t 0.132198837 -s 4 -d -1 -p ack -e 40 -c 2 -a 0 -i 22 -k AGT
+ -t 0.132198837 -s 4 -d 0 -p ack -e 40 -c 2 -a 0 -i 22 -k RTR 
- -t 0.132198837 -s 4 -d 0 -p ack -e 40 -c 2 -a 0 -i 22 -k RTR
h -t 0.132198837 -s 4 -d 0 -p ack -e 40 -c 2 -a 0 -i 22 -k RTR
r -t 0.134044157 -s 0 -d 0 -p ack -e 40 -c 2 -a 0 -i 22 -k AGT
+ -t 0.134044157 -s 0 -d -1 -p tcp -e 1540 -c 2 -a 0 -i 23 -k AGT 
- -t 0.134044157 -s 0 -d -1 -p tcp -e 1540 -c 2 -a 0 -i 23 -k AGT
h -t 0.134044157 -s 0 -d -1 -p tcp -e 1540 -c 2 -a 0 -i 23 -k AGT
+ -t 0.134044157 -s 0 -d -1 -p tcp -e 1540 -c 2 -a 0 -i 24 -k AGT 
- -t 0.134044157 -s 0 -d -1 -p tcp -e 1540 -c 2 -a 0 -i 24 -k AGT
h -t 0.134044157 -s 0 -d -1 -p tcp -e 1540 -c 2 -a 0 -i 24 -k AGT
+ -t 0.134044157 -s 0 -d 4 -p tcp -e 1540 -c 2 -a 0 -i 23 -k RTR 
- -t 0.134044157 -s 0 -d 4 -p tcp -e 1540 -c 2 -a 0 -i 23 -k RTR
h -t 0.134044157 -s 0 -d 4 -p tcp -e 1540 -c 2 -a 0 -i 23 -k RTR
+ -t 0.134044157 -s 0 -d 4 -p tcp -e 1540 -c 2 -a 0 -i 24 -k RTR 
- -t 0.134044157 -s 0 -d 4 -p tcp -e 1540 -c 2 -a 0 -i 24 -k RTR
h -t 0.134044157 -s 0 -d 4 -p tcp -e 1540 -c 2 -a 0 -i 24 -k RTR
r -t 0.148169476 -s 4 -d 4 -p tcp -e 1540 -c 2 -a 0 -i 12 -k AGT
+ -t 0.148169476 -s 4 -d -1 -p ack -e 40 -c 2 -a 0 -i 25 -k AGT 
- -t 0.148169476 -s 4 -d -1 -p ack -e 40 -c 2 -a 0 -i 25 -k AGT
h -t 0.148169476 -s 4 -d -1 -p ack -e 40 -c 2 -a 0 -i 25 -k AGT
+ -t 0.148169476 -s 4 -d 0 -p ack -e 40 -c 2 -a 0 -i 25 -k RTR 
- -t 0.148169476 -s 4 -d 0 -p ack -e 40 -c 2 -a 0 -i 25 -k RTR
h -t 0.148169476 -s 4 -d 0 -p ack -e 40 -c 2 -a 0 -i 25 -k RTR
r -t 0.150074796 -s 0 -d 0 -p ack -e 40 -c 2 -a 0 -i 25 -k AGT
+ -t 0.150074796 -s 0 -d -1 -p tcp -e 1540 -c 2 -a 0 -i 26 -k AGT 
- -t 0.150074796 -s 0 -d -1 -p tcp -e 1540 -c 2 -a 0 -i 26 -k AGT
h -t 0.150074796 -s 0 -d -1 -p tcp -e 1540 -c 2 -a 0 -i 26 -k AGT
+ -t 0.150074796 -s 0 -d -1 -p tcp -e 1540 -c 2 -a 0 -i 27 -k AGT 
- -t 0.150074796 -s 0 -d -1 -p tcp -e 1540 -c 2 -a 0 -i 27 -k AGT
h -t 0.150074796 -s 0 -d -1 -p tcp -e 1540 -c 2 -a 0 -i 27 -k AGT
+ -t 0.150074796 -s 0 -d 4 -p tcp -e 1540 -c 2 -a 0 -i 26 -k RTR 
- -t 0.150074796 -s 0 -d 4 -p tcp -e 1540 -c 2 -a 0 -i 26 -k RTR
h -t 0.150074796 -s 0 -d 4 -p tcp -e 1540 -c 2 -a 0 -i 26 -k RTR
+ -t 0.150074796 -s 0 -d 4 -p tcp -e 1540 -c 2 -a 0 -i 27 -k RTR 
- -t 0.150074796 -s 0 -d 4 -p tcp -e 1540 -c 2 -a 0 -i 27 -k RTR
h -t 0.150074796 -s 0 -d 4 -p tcp -e 1540 -c 2 -a 0 -i 27 -k RTR
r -t 0.163980115 -s 4 -d 4 -p tcp -e 1540 -c 2 -a 0 -i 14 -k AGT
+ -t 0.163980115 -s 4 -d -1 -p ack -e 40 -c 2 -a 0 -i 28 -k AGT 
- -t 0.163980115 -s 4 -d -1 -p ack -e 40 -c 2 -a 0 -i 28 -k AGT
h -t 0.163980115 -s 4 -d -1 -p ack -e 40 -c 2 -a 0 -i 28 -k AGT
+ -t 0.163980115 -s 4 -d 0 -p ack -e 40 -c 2 -a 0 -i 28 -k RTR 
- -t 0.163980115 -s 4 -d 0 -p ack -e 40 -c 2 -a 0 -i 28 -k RTR
h -t 0.163980115 -s 4 -d 0 -p ack -e 40 -c 2 -a 0 -i 28 -k RTR
r -t 0.178005875 -s 4 -d 4 -p tcp -e 1540 -c 2 -a 0 -i 15 -k AGT
+ -t 0.178005875 -s 4 -d -1 -p ack -e 40 -c 2 -a 0 -i 29 -k AGT 
- -t 0.178005875 -s 4 -d -1 -p ack -e 40 -c 2 -a 0 -i 29 -k AGT
h -t 0.178005875 -s 4 -d -1 -p ack -e 40 -c 2 -a 0 -i 29 -k AGT
+ -t 0.178005875 -s 4 -d 0 -p ack -e 40 -c 2 -a 0 -i 29 -k RTR 
- -t 0.178005875 -s 4 -d 0 -p ack -e 40 -c 2 -a 0 -i 29 -k RTR
h -t 0.178005875 -s 4 -d 0 -p ack -e 40 -c 2 -a 0 -i 29 -k RTR
r -t 0.179911194 -s 0 -d 0 -p ack -e 40 -c 2 -a 0 -i 28 -k AGT
+ -t 0.179911194 -s 0 -d -1 -p tcp -e 1540 -c 2 -a 0 -i 30 -k AGT 
- -t 0.179911194 -s 0 -d -1 -p tcp -e 1540 -c 2 -a 0 -i 30 -k AGT
h -t 0.179911194 -s 0 -d -1 -p tcp -e 1540 -c 2 -a 0 -i 30 -k AGT
+ -t 0.179911194 -s 0 -d -1 -p tcp -e 1540 -c 2 -a 0 -i 31 -k AGT 
- -t 0.179911194 -s 0 -d -1 -p tcp -e 1540 -c 2 -a 0 -i 31 -k AGT
h -t 0.179911194 -s 0 -d -1 -p tcp -e 1540 -c 2 -a 0 -i 31 -k AGT
+ -t 0.179911194 -s 0 -d 4 -p tcp -e 1540 -c 2 -a 0 -i 30 -k RTR 
- -t 0.179911194 -s 0 -d 4 -p tcp -e 1540 -c 2 -a 0 -i 30 -k RTR
h -t 0.179911194 -s 0 -d 4 -p tcp -e 1540 -c 2 -a 0 -i 30 -k RTR
+ -t 0.179911194 -s 0 -d 4 -p tcp -e 1540 -c 2 -a 0 -i 31 -k RTR 
- -t 0.179911194 -s 0 -d 4 -p tcp -e 1540 -c 2 -a 0 -i 31 -k RTR
h -t 0.179911194 -s 0 -d 4 -p tcp -e 1540 -c 2 -a 0 -i 31 -k RTR
r -t 0.193776513 -s 4 -d 4 -p tcp -e 1540 -c 2 -a 0 -i 18 -k AGT
+ -t 0.193776513 -s 4 -d -1 -p ack -e 40 -c 2 -a 0 -i 32 -k AGT 
- -t 0.193776513 -s 4 -d -1 -p ack -e 40 -c 2 -a 0 -i 32 -k AGT
h -t 0.193776513 -s 4 -d -1 -p ack -e 40 -c 2 -a 0 -i 32 -k AGT
+ -t 0.193776513 -s 4 -d 0 -p ack -e 40 -c 2 -a 0 -i 32 -k RTR 
- -t 0.193776513 -s 4 -d 0 -p ack -e 40 -c 2 -a 0 -i 32 -k RTR
h -t 0.193776513 -s 4 -d 0 -p ack -e 40 -c 2 -a 0 -i 32 -k RTR
r -t 0.207822273 -s 4 -d 4 -p tcp -e 1540 -c 2 -a 0 -i 19 -k AGT
+ -t 0.207822273 -s 4 -d -1 -p ack -e 40 -c 2 -a 0 -i 33 -k AGT 
- -t 0.207822273 -s 4 -d -1 -p ack -e 40 -c 2 -a 0 -i 33 -k AGT
h -t 0.207822273 -s 4 -d -1 -p ack -e 40 -c 2 -a 0 -i 33 -k AGT
+ -t 0.207822273 -s 4 -d 0 -p ack -e 40 -c 2 -a 0 -i 33 -k RTR 
- -t 0.207822273 -s 4 -d 0 -p ack -e 40 -c 2 -a 0 -i 33 -k RTR
h -t 0.207822273 -s 4 -d 0 -p ack -e 40 -c 2 -a 0 -i 33 -k RTR
r -t 0.221848032 -s 4 -d 4 -p tcp -e 1540 -c 2 -a 0 -i 20 -k AGT
+ -t 0.221848032 -s 4 -d -1 -p ack -e 40 -c 2 -a 0 -i 34 -k AGT 
- -t 0.221848032 -s 4 -d -1 -p ack -e 40 -c 2 -a 0 -i 34 -k AGT
h -t 0.221848032 -s 4 -d -1 -p ack -e 40 -c 2 -a 0 -i 34 -k AGT
+ -t 0.221848032 -s 4 -d 0 -p ack -e 40 -c 2 -a 0 -i 34 -k RTR 
- -t 0.221848032 -s 4 -d 0 -p ack -e 40 -c 2 -a 0 -i 34 -k RTR
h -t 0.221848032 -s 4 -d 0 -p ack -e 40 -c 2 -a 0 -i 34 -k RTR
r -t 0.223733352 -s 0 -d 0 -p ack -e 40 -c 2 -a 0 -i 29 -k AGT
+ -t 0.223733352 -s 0 -d -1 -p tcp -e 1540 -c 2 -a 0 -i 35 -k AGT 
- -t 0.223733352 -s 0 -d -1 -p tcp -e 1540 -c 2 -a 0 -i 35 -k AGT
h -t 0.223733352 -s 0 -d -1 -p tcp -e 1540 -c 2 -a 0 -i 35 -k AGT
+ -t 0.223733352 -s 0 -d -1 -p tcp -e 1540 -c 2 -a 0 -i 36 -k AGT 
- -t 0.223733352 -s 0 -d -1 -p tcp -e 1540 -c 2 -a 0 -i 36 -k AGT
h -t 0.223733352 -s 0 -d -1 -p tcp -e 1540 -c 2 -a 0 -i 36 -k AGT
+ -t 0.223733352 -s 0 -d 4 -p tcp -e 1540 -c 2 -a 0 -i 35 -k RTR 
- -t 0.223733352 -s 0 -d 4 -p tcp -e 1540 -c 2 -a 0 -i 35 -k RTR
h -t 0.223733352 -s 0 -d 4 -p tcp -e 1540 -c 2 -a 0 -i 35 -k RTR
+ -t 0.223733352 -s 0 -d 4 -p tcp -e 1540 -c 2 -a 0 -i 36 -k RTR 
- -t 0.223733352 -s 0 -d 4 -p tcp -e 1540 -c 2 -a 0 -i 36 -k RTR
h -t 0.223733352 -s 0 -d 4 -p tcp -e 1540 -c 2 -a 0 -i 36 -k RTR
r -t 0.225619111 -s 0 -d 0 -p ack -e 40 -c 2 -a 0 -i 32 -k AGT
+ -t 0.225619111 -s 0 -d -1 -p tcp -e 1540 -c 2 -a 0 -i 37 -k AGT 
- -t 0.225619111 -s 0 -d -1 -p tcp -e 1540 -c 2 -a 0 -i 37 -k AGT
h -t 0.225619111 -s 0 -d -1 -p tcp -e 1540 -c 2 -a 0 -i 37 -k AGT
+ -t 0.225619111 -s 0 -d -1 -p tcp -e 1540 -c 2 -a 0 -i 38 -k AGT 
- -t 0.225619111 -s 0 -d -1 -p tcp -e 1540 -c 2 -a 0 -i 38 -k AGT
h -t 0.225619111 -s 0 -d -1 -p tcp -e 1540 -c 2 -a 0 -i 38 -k AGT
+ -t 0.225619111 -s 0 -d 4 -p tcp -e 1540 -c 2 -a 0 -i 37 -k RTR 
- -t 0.225619111 -s 0 -d 4 -p tcp -e 1540 -c 2 -a 0 -i 37 -k RTR
h -t 0.225619111 -s 0 -d 4 -p tcp -e 1540 -c 2 -a 0 -i 37 -k RTR
+ -t 0.225619111 -s 0 -d 4 -p tcp -e 1540 -c 2 -a 0 -i 38 -k RTR 
- -t 0.225619111 -s 0 -d 4 -p tcp -e 1540 -c 2 -a 0 -i 38 -k RTR
h -t 0.225619111 -s 0 -d 4 -p tcp -e 1540 -c 2 -a 0 -i 38 -k RTR
r -t 0.227564870 -s 0 -d 0 -p ack -e 40 -c 2 -a 0 -i 33 -k AGT
+ -t 0.227564870 -s 0 -d -1 -p tcp -e 1540 -c 2 -a 0 -i 39 -k AGT 
- -t 0.227564870 -s 0 -d -1 -p tcp -e 1540 -c 2 -a 0 -i 39 -k AGT
h -t 0.227564870 -s 0 -d -1 -p tcp -e 1540 -c 2 -a 0 -i 39 -k AGT
+ -t 0.227564870 -s 0 -d -1 -p tcp -e 1540 -c 2 -a 0 -i 40 -k AGT 
- -t 0.227564870 -s 0 -d -1 -p tcp -e 1540 -c 2 -a 0 -i 40 -k AGT
h -t 0.227564870 -s 0 -d -1 -p tcp -e 1540 -c 2 -a 0 -i 40 -k AGT
+ -t 0.227564870 -s 0 -d 4 -p tcp -e 1540 -c 2 -a 0 -i 39 -k RTR 
- -t 0.227564870 -s 0 -d 4 -p tcp -e 1540 -c 2 -a 0 -i 39 -k RTR
h -t 0.227564870 -s 0 -d 4 -p tcp -e 1540 -c 2 -a 0 -i 39 -k RTR
+ -t 0.227564870 -s 0 -d 4 -p tcp -e 1540 -c 2 -a 0 -i 40 -k RTR 
- -t 0.227564870 -s 0 -d 4 -p tcp -e 1540 -c 2 -a 0 -i 40 -k RTR
h -t 0.227564870 -s 0 -d 4 -p tcp -e 1540 -c 2 -a 0 -i 40 -k RTR
r -t 0.230536629 -s 0 -d 0 -p ack -e 40 -c 2 -a 0 -i 34 -k AGT
+ -t 0.230536629 -s 0 -d -1 -p tcp -e 1540 -c 2 -a 0 -i 41 -k AGT 
- -t 0.230536629 -s 0 -d -1 -p tcp -e 1540 -c 2 -a 0 -i 41 -k AGT
h -t 0.230536629 -s 0 -d -1 -p tcp -e 1540 -c 2 -a 0 -i 41 -k AGT
+ -t 0.230536629 -s 0 -d -1 -p tcp -e 1540 -c 2 -a 0 -i 42 -k AGT 
- -t 0.230536629 -s 0 -d -1 -p tcp -e 1540 -c 2 -a 0 -i 42 -k AGT
h -t 0.230536629 -s 0 -d -1 -p tcp -e 1540 -c 2 -a 0 -i 42 -k AGT
+ -t 0.230536629 -s 0 -d 4 -p tcp -e 1540 -c 2 -a 0 -i 41 -k RTR 
- -t 0.230536629 -s 0 -d 4 -p tcp -e 1540 -c 2 -a 0 -i 41 -k RTR
h -t 0.230536629 -s 0 -d 4 -p tcp -e 1540 -c 2 -a 0 -i 41 -k RTR
+ -t 0.230536629 -s 0 -d 4 -p tcp -e 1540 -c 2 -a 0 -i 42 -k RTR 
- -t 0.230536629 -s 0 -d 4 -p tcp -e 1540 -c 2 -a 0 -i 42 -k RTR
h -t 0.230536629 -s 0 -d 4 -p tcp -e 1540 -c 2 -a 0 -i 42 -k RTR
r -t 0.245001949 -s 4 -d 4 -p tcp -e 1540 -c 2 -a 0 -i 21 -k AGT
+ -t 0.245001949 -s 4 -d -1 -p ack -e 40 -c 2 -a 0 -i 43 -k AGT 
- -t 0.245001949 -s 4 -d -1 -p ack -e 40 -c 2 -a 0 -i 43 -k AGT
h -t 0.245001949 -s 4 -d -1 -p ack -e 40 -c 2 -a 0 -i 43 -k AGT
+ -t 0.245001949 -s 4 -d 0 -p ack -e 40 -c 2 -a 0 -i 43 -k RTR 
- -t 0.245001949 -s 4 -d 0 -p ack -e 40 -c 2 -a 0 -i 43 -k RTR
h -t 0.245001949 -s 4 -d 0 -p ack -e 40 -c 2 -a 0 -i 43 -k RTR
r -t 0.247107268 -s 0 -d 0 -p ack -e 40 -c 2 -a 0 -i 43 -k AGT
+ -t 0.247107268 -s 0 -d -1 -p tcp -e 1540 -c 2 -a 0 -i 44 -k AGT 
- -t 0.247107268 -s 0 -d -1 -p tcp -e 1540 -c 2 -a 0 -i 44 -k AGT
h -t 0.247107268 -s 0 -d -1 -p tcp -e 1540 -c 2 -a 0 -i 44 -k AGT
+ -t 0.247107268 -s 0 -d -1 -p tcp -e 1540 -c 2 -a 0 -i 45 -k AGT 
- -t 0.247107268 -s 0 -d -1 -p tcp -e 1540 -c 2 -a 0 -i 45 -k AGT
h -t 0.247107268 -s 0 -d -1 -p tcp -e 1540 -c 2 -a 0 -i 45 -k AGT
+ -t 0.247107268 -s 0 -d 4 -p tcp -e 1540 -c 2 -a 0 -i 44 -k RTR 
- -t 0.247107268 -s 0 -d 4 -p tcp -e 1540 -c 2 -a 0 -i 44 -k RTR
h -t 0.247107268 -s 0 -d 4 -p tcp -e 1540 -c 2 -a 0 -i 44 -k RTR
+ -t 0.247107268 -s 0 -d 4 -p tcp -e 1540 -c 2 -a 0 -i 45 -k RTR 
- -t 0.247107268 -s 0 -d 4 -p tcp -e 1540 -c 2 -a 0 -i 45 -k RTR
h -t 0.247107268 -s 0 -d 4 -p tcp -e 1540 -c 2 -a 0 -i 45 -k RTR
r -t 0.261132588 -s 4 -d 4 -p tcp -e 1540 -c 2 -a 0 -i 23 -k AGT
+ -t 0.261132588 -s 4 -d -1 -p ack -e 40 -c 2 -a 0 -i 46 -k AGT 
- -t 0.261132588 -s 4 -d -1 -p ack -e 40 -c 2 -a 0 -i 46 -k AGT
h -t 0.261132588 -s 4 -d -1 -p ack -e 40 -c 2 -a 0 -i 46 -k AGT
+ -t 0.261132588 -s 4 -d 0 -p ack -e 40 -c 2 -a 0 -i 46 -k RTR 
- -t 0.261132588 -s 4 -d 0 -p ack -e 40 -c 2 -a 0 -i 46 -k RTR
h -t 0.261132588 -s 4 -d 0 -p ack -e 40 -c 2 -a 0 -i 46 -k RTR
r -t 0.263177907 -s 0 -d 0 -p ack -e 40 -c 2 -a 0 -i 46 -k AGT
+ -t 0.263177907 -s 0 -d -1 -p tcp -e 1540 -c 2 -a 0 -i 47 -k AGT 
- -t 0.263177907 -s 0 -d -1 -p tcp -e 1540 -c 2 -a 0 -i 47 -k AGT
h -t 0.263177907 -s 0 -d -1 -p tcp -e 1540 -c 2 -a 0 -i 47 -k AGT
+ -t 0.263177907 -s 0 -d -1 -p tcp -e 1540 -c 2 -a 0 -i 48 -k AGT 
- -t 0.263177907 -s 0 -d -1 -p tcp -e 1540 -c 2 -a 0 -i 48 -k AGT
h -t 0.263177907 -s 0 -d -1 -p tcp -e 1540 -c 2 -a 0 -i 48 -k AGT
+ -t 0.263177907 -s 0 -d 4 -p tcp -e 1540 -c 2 -a 0 -i 47 -k RTR 
- -t 0.263177907 -s 0 -d 4 -p tcp -e 1540 -c 2 -a 0 -i 47 -k RTR
h -t 0.263177907 -s 0 -d 4 -p tcp -e 1540 -c 2 -a 0 -i 47 -k RTR
+ -t 0.263177907 -s 0 -d 4 -p tcp -e 1540 -c 2 -a 0 -i 48 -k RTR 
- -t 0.263177907 -s 0 -d 4 -p tcp -e 1540 -c 2 -a 0 -i 48 -k RTR
h -t 0.263177907 -s 0 -d 4 -p tcp -e 1540 -c 2 -a 0 -i 48 -k RTR
r -t 0.277123227 -s 4 -d 4 -p tcp -e 1540 -c 2 -a 0 -i 24 -k AGT
+ -t 0.277123227 -s 4 -d -1 -p ack -e 40 -c 2 -a 0 -i 49 -k AGT 
- -t 0.277123227 -s 4 -d -1 -p ack -e 40 -c 2 -a 0 -i 49 -k AGT
h -t 0.277123227 -s 4 -d -1 -p ack -e 40 -c 2 -a 0 -i 49 -k AGT
+ -t 0.277123227 -s 4 -d 0 -p ack -e 40 -c 2 -a 0 -i 49 -k RTR 
- -t 0.277123227 -s 4 -d 0 -p ack -e 40 -c 2 -a 0 -i 49 -k RTR
h -t 0.277123227 -s 4 -d 0 -p ack -e 40 -c 2 -a 0 -i 49 -k RTR
r -t 0.278988546 -s 0 -d 0 -p ack -e 40 -c 2 -a 0 -i 49 -k AGT
+ -t 0.278988546 -s 0 -d -1 -p tcp -e 1540 -c 2 -a 0 -i 50 -k AGT 
- -t 0.278988546 -s 0 -d -1 -p tcp -e 1540 -c 2 -a 0 -i 50 -k AGT
h -t 0.278988546 -s 0 -d -1 -p tcp -e 1540 -c 2 -a 0 -i 50 -k AGT
+ -t 0.278988546 -s 0 -d -1 -p tcp -e 1540 -c 2 -a 0 -i 51 -k AGT 
- -t 0.278988546 -s 0 -d -1 -p tcp -e 1540 -c 2 -a 0 -i 51 -k AGT
h -t 0.278988546 -s 0 -d -1 -p tcp -e 1540 -c 2 -a 0 -i 51 -k AGT
+ -t 0.278988546 -s 0 -d 4 -p tcp -e 1540 -c 2 -a 0 -i 50 -k RTR 
- -t 0.278988546 -s 0 -d 4 -p tcp -e 1540 -c 2 -a 0 -i 50 -k RTR
h -t 0.278988546 -s 0 -d 4 -p tcp -e 1540 -c 2 -a 0 -i 50 -k RTR
+ -t 0.278988546 -s 0 -d 4 -p tcp -e 1540 -c 2 -a 0 -i 51 -k RTR 
- -t 0.278988546 -s 0 -d 4 -p tcp -e 1540 -c 2 -a 0 -i 51 -k RTR
h -t 0.278988546 -s 0 -d 4 -p tcp -e 1540 -c 2 -a 0 -i 51 -k RTR
r -t 0.293013866 -s 4 -d 4 -p tcp -e 1540 -c 2 -a 0 -i 26 -k AGT
+ -t 0.293013866 -s 4 -d -1 -p ack -e 40 -c 2 -a 0 -i 52 -k AGT 
- -t 0.293013866 -s 4 -d -1 -p ack -e 40 -c 2 -a 0 -i 52 -k AGT
h -t 0.293013866 -s 4 -d -1 -p ack -e 40 -c 2 -a 0 -i 52 -k AGT
+ -t 0.293013866 -s 4 -d 0 -p ack -e 40 -c 2 -a 0 -i 52 -k RTR 
- -t 0.293013866 -s 4 -d 0 -p ack -e 40 -c 2 -a 0 -i 52 -k RTR
h -t 0.293013866 -s 4 -d 0 -p ack -e 40 -c 2 -a 0 -i 52 -k RTR
r -t 0.306839625 -s 4 -d 4 -p tcp -e 1540 -c 2 -a 0 -i 27 -k AGT
+ -t 0.306839625 -s 4 -d -1 -p ack -e 40 -c 2 -a 0 -i 53 -k AGT 
- -t 0.306839625 -s 4 -d -1 -p ack -e 40 -c 2 -a 0 -i 53 -k AGT
h -t 0.306839625 -s 4 -d -1 -p ack -e 40 -c 2 -a 0 -i 53 -k AGT
+ -t 0.306839625 -s 4 -d 0 -p ack -e 40 -c 2 -a 0 -i 53 -k RTR 
- -t 0.306839625 -s 4 -d 0 -p ack -e 40 -c 2 -a 0 -i 53 -k RTR
h -t 0.306839625 -s 4 -d 0 -p ack -e 40 -c 2 -a 0 -i 53 -k RTR
r -t 0.320905384 -s 4 -d 4 -p tcp -e 1540 -c 2 -a 0 -i 30 -k AGT
+ -t 0.320905384 -s 4 -d -1 -p ack -e 40 -c 2 -a 0 -i 54 -k AGT 
- -t 0.320905384 -s 4 -d -1 -p ack -e 40 -c 2 -a 0 -i 54 -k AGT
h -t 0.320905384 -s 4 -d -1 -p ack -e 40 -c 2 -a 0 -i 54 -k AGT
+ -t 0.320905384 -s 4 -d 0 -p ack -e 40 -c 2 -a 0 -i 54 -k RTR 
- -t 0.320905384 -s 4 -d 0 -p ack -e 40 -c 2 -a 0 -i 54 -k RTR
h -t 0.320905384 -s 4 -d 0 -p ack -e 40 -c 2 -a 0 -i 54 -k RTR
r -t 0.322790704 -s 0 -d 0 -p ack -e 40 -c 2 -a 0 -i 52 -k AGT
+ -t 0.322790704 -s 0 -d -1 -p tcp -e 1540 -c 2 -a 0 -i 55 -k AGT 
- -t 0.322790704 -s 0 -d -1 -p tcp -e 1540 -c 2 -a 0 -i 55 -k AGT
h -t 0.322790704 -s 0 -d -1 -p tcp -e 1540 -c 2 -a 0 -i 55 -k AGT
+ -t 0.322790704 -s 0 -d -1 -p tcp -e 1540 -c 2 -a 0 -i 56 -k AGT 
- -t 0.322790704 -s 0 -d -1 -p tcp -e 1540 -c 2 -a 0 -i 56 -k AGT
h -t 0.322790704 -s 0 -d -1 -p tcp -e 1540 -c 2 -a 0 -i 56 -k AGT
+ -t 0.322790704 -s 0 -d 4 -p tcp -e 1540 -c 2 -a 0 -i 55 -k RTR 
- -t 0.322790704 -s 0 -d 4 -p tcp -e 1540 -c 2 -a 0 -i 55 -k RTR
h -t 0.322790704 -s 0 -d 4 -p tcp -e 1540 -c 2 -a 0 -i 55 -k RTR
+ -t 0.322790704 -s 0 -d 4 -p tcp -e 1540 -c 2 -a 0 -i 56 -k RTR 
- -t 0.322790704 -s 0 -d 4 -p tcp -e 1540 -c 2 -a 0 -i 56 -k RTR
h -t 0.322790704 -s 0 -d 4 -p tcp -e 1540 -c 2 -a 0 -i 56 -k RTR
r -t 0.336856023 -s 4 -d 4 -p tcp -e 1540 -c 2 -a 0 -i 31 -k AGT
+ -t 0.336856023 -s 4 -d -1 -p ack -e 40 -c 2 -a 0 -i 57 -k AGT 
- -t 0.336856023 -s 4 -d -1 -p ack -e 40 -c 2 -a 0 -i 57 -k AGT
h -t 0.336856023 -s 4 -d -1 -p ack -e 40 -c 2 -a 0 -i 57 -k AGT
+ -t 0.336856023 -s 4 -d 0 -p ack -e 40 -c 2 -a 0 -i 57 -k RTR 
- -t 0.336856023 -s 4 -d 0 -p ack -e 40 -c 2 -a 0 -i 57 -k RTR
h -t 0.336856023 -s 4 -d 0 -p ack -e 40 -c 2 -a 0 -i 57 -k RTR
r -t 0.350701782 -s 4 -d 4 -p tcp -e 1540 -c 2 -a 0 -i 35 -k AGT
+ -t 0.350701782 -s 4 -d -1 -p ack -e 40 -c 2 -a 0 -i 58 -k AGT 
- -t 0.350701782 -s 4 -d -1 -p ack -e 40 -c 2 -a 0 -i 58 -k AGT
h -t 0.350701782 -s 4 -d -1 -p ack -e 40 -c 2 -a 0 -i 58 -k AGT
+ -t 0.350701782 -s 4 -d 0 -p ack -e 40 -c 2 -a 0 -i 58 -k RTR 
- -t 0.350701782 -s 4 -d 0 -p ack -e 40 -c 2 -a 0 -i 58 -k RTR
h -t 0.350701782 -s 4 -d 0 -p ack -e 40 -c 2 -a 0 -i 58 -k RTR
r -t 0.352547102 -s 0 -d 0 -p ack -e 40 -c 2 -a 0 -i 53 -k AGT
+ -t 0.352547102 -s 0 -d -1 -p tcp -e 1540 -c 2 -a 0 -i 59 -k AGT 
- -t 0.352547102 -s 0 -d -1 -p tcp -e 1540 -c 2 -a 0 -i 59 -k AGT
h -t 0.352547102 -s 0 -d -1 -p tcp -e 1540 -c 2 -a 0 -i 59 -k AGT
+ -t 0.352547102 -s 0 -d -1 -p tcp -e 1540 -c 2 -a 0 -i 60 -k AGT 
- -t 0.352547102 -s 0 -d -1 -p tcp -e 1540 -c 2 -a 0 -i 60 -k AGT
h -t 0.352547102 -s 0 -d -1 -p tcp -e 1540 -c 2 -a 0 -i 60 -k AGT
+ -t 0.352547102 -s 0 -d 4 -p tcp -e 1540 -c 2 -a 0 -i 59 -k RTR 
- -t 0.352547102 -s 0 -d 4 -p tcp -e 1540 -c 2 -a 0 -i 59 -k RTR
h -t 0.352547102 -s 0 -d 4 -p tcp -e 1540 -c 2 -a 0 -i 59 -k RTR
+ -t 0.352547102 -s 0 -d 4 -p tcp -e 1540 -c 2 -a 0 -i 60 -k RTR 
- -t 0.352547102 -s 0 -d 4 -p tcp -e 1540 -c 2 -a 0 -i 60 -k RTR
h -t 0.352547102 -s 0 -d 4 -p tcp -e 1540 -c 2 -a 0 -i 60 -k RTR
r -t 0.354612861 -s 0 -d 0 -p ack -e 40 -c 2 -a 0 -i 54 -k AGT
+ -t 0.354612861 -s 0 -d -1 -p tcp -e 1540 -c 2 -a 0 -i 61 -k AGT 
- -t 0.354612861 -s 0 -d -1 -p tcp -e 1540 -c 2 -a 0 -i 61 -k AGT
h -t 0.354612861 -s 0 -d -1 -p tcp -e 1540 -c 2 -a 0 -i 61 -k AGT
+ -t 0.354612861 -s 0 -d 4 -p tcp -e 1540 -c 2 -a 0 -i 61 -k RTR 
- -t 0.354612861 -s 0 -d 4 -p tcp -e 1540 -c 2 -a 0 -i 61 -k RTR
h -t 0.354612861 -s 0 -d 4 -p tcp -e 1540 -c 2 -a 0 -i 61 -k RTR
r -t 0.356558621 -s 0 -d 0 -p ack -e 40 -c 2 -a 0 -i 57 -k AGT
+ -t 0.356558621 -s 0 -d -1 -p tcp -e 1540 -c 2 -a 0 -i 62 -k AGT 
- -t 0.356558621 -s 0 -d -1 -p tcp -e 1540 -c 2 -a 0 -i 62 -k AGT
h -t 0.356558621 -s 0 -d -1 -p tcp -e 1540 -c 2 -a 0 -i 62 -k AGT
+ -t 0.356558621 -s 0 -d 4 -p tcp -e 1540 -c 2 -a 0 -i 62 -k RTR 
- -t 0.356558621 -s 0 -d 4 -p tcp -e 1540 -c 2 -a 0 -i 62 -k RTR
h -t 0.356558621 -s 0 -d 4 -p tcp -e 1540 -c 2 -a 0 -i 62 -k RTR
r -t 0.370483940 -s 4 -d 4 -p tcp -e 1540 -c 2 -a 0 -i 36 -k AGT
+ -t 0.370483940 -s 4 -d -1 -p ack -e 40 -c 2 -a 0 -i 63 -k AGT 
- -t 0.370483940 -s 4 -d -1 -p ack -e 40 -c 2 -a 0 -i 63 -k AGT
h -t 0.370483940 -s 4 -d -1 -p ack -e 40 -c 2 -a 0 -i 63 -k AGT
+ -t 0.370483940 -s 4 -d 0 -p ack -e 40 -c 2 -a 0 -i 63 -k RTR 
- -t 0.370483940 -s 4 -d 0 -p ack -e 40 -c 2 -a 0 -i 63 -k RTR
h -t 0.370483940 -s 4 -d 0 -p ack -e 40 -c 2 -a 0 -i 63 -k RTR
r -t 0.384349699 -s 4 -d 4 -p tcp -e 1540 -c 2 -a 0 -i 37 -k AGT
+ -t 0.384349699 -s 4 -d -1 -p ack -e 40 -c 2 -a 0 -i 64 -k AGT 
- -t 0.384349699 -s 4 -d -1 -p ack -e 40 -c 2 -a 0 -i 64 -k AGT
h -t 0.384349699 -s 4 -d -1 -p ack -e 40 -c 2 -a 0 -i 64 -k AGT
+ -t 0.384349699 -s 4 -d 0 -p ack -e 40 -c 2 -a 0 -i 64 -k RTR 