M 1.00000 0 (1008.00, 186.00, 0.00), (174.00, 925.00), 1.00
M 1.00000 1 (908.00, 205.00, 0.00), (291.00, 883.00), 6.00
M 1.00000 2 (124.00, 727.00, 0.00), (727.00, 543.00), 9.00
M 1.00000 3 (407.00, 576.00, 0.00), (730.00, 338.00), 7.00
M 1.00000 4 (643.00, 468.00, 0.00), (265.00, 161.00), 9.00
M 1.00000 5 (755.00, 322.00, 0.00), (502.00, 556.00), 0.00
M 1.00000 6 (965.00, 652.00, 0.00), (753.00, 723.00), 4.00
M 1.00000 7 (972.00, 341.00, 0.00), (329.00, 62.00), 0.00
M 1.00000 8 (725.00, 680.00, 0.00), (439.00, 181.00), 8.00
M 1.00000 9 (651.00, 975.00, 0.00), (325.00, 828.00), 2.00
s 1.000000000 _0_ AGT  --- 0 tcp 40 [0 0 0 0] ------- [0:0 4:0 32 0] [0 0] 0 0
r 1.000000000 _0_ RTR  --- 0 tcp 40 [0 0 0 0] ------- [0:0 4:0 32 0] [0 0] 0 0
s 1.000000000 _0_ RTR  --- 0 AODV 48 [0 0 0 0] ------- [0:255 -1:255 30 0] [0x2 1 1 [4 0] [0 4]] (REQUEST)
r 1.000988339 _1_ RTR  --- 0 AODV 48 [0 ffffffff 0 800] ------- [0:255 -1:255 30 0] [0x2 1 1 [4 0] [0 4]] (REQUEST)
r 1.000988530 _7_ RTR  --- 0 AODV 48 [0 ffffffff 0 800] ------- [0:255 -1:255 30 0] [0x2 1 1 [4 0] [0 4]] (REQUEST)
s 1.001869566 _1_ RTR  --- 0 AODV 48 [0 ffffffff 0 800] ------- [1:255 -1:255 29 0] [0x2 2 1 [4 0] [0 4]] (REQUEST)
r 1.002817905 _0_ RTR  --- 0 AODV 48 [0 ffffffff 1 800] ------- [1:255 -1:255 29 0] [0x2 2 1 [4 0] [0 4]] (REQUEST)
r 1.002818067 _7_ RTR  --- 0 AODV 48 [0 ffffffff 1 800] ------- [1:255 -1:255 29 0] [0x2 2 1 [4 0] [0 4]] (REQUEST)
r 1.002818208 _5_ RTR  --- 0 AODV 48 [0 ffffffff 1 800] ------- [1:255 -1:255 29 0] [0x2 2 1 [4 0] [0 4]] (REQUEST)
s 1.005400264 _7_ RTR  --- 0 AODV 48 [0 ffffffff 0 800] ------- [7:255 -1:255 29 0] [0x2 2 1 [4 0] [0 4]] (REQUEST)
r 1.006588765 _1_ RTR  --- 0 AODV 48 [0 ffffffff 7 800] ------- [7:255 -1:255 29 0] [0x2 2 1 [4 0] [0 4]] (REQUEST)
r 1.006588795 _0_ RTR  --- 0 AODV 48 [0 ffffffff 7 800] ------- [7:255 -1:255 29 0] [0x2 2 1 [4 0] [0 4]] (REQUEST)
r 1.006588990 _5_ RTR  --- 0 AODV 48 [0 ffffffff 7 800] ------- [7:255 -1:255 29 0] [0x2 2 1 [4 0] [0 4]] (REQUEST)
s 1.010982969 _5_ RTR  --- 0 AODV 48 [0 ffffffff 1 800] ------- [5:255 -1:255 28 0] [0x2 3 1 [4 0] [0 4]] (REQUEST)
r 1.012191582 _4_ RTR  --- 0 AODV 48 [0 ffffffff 5 800] ------- [5:255 -1:255 28 0] [0x2 3 1 [4 0] [0 4]] (REQUEST)
s 1.012191582 _4_ RTR  --- 0 AODV 44 [0 0 0 0] ------- [4:255 0:255 30 5] [0x4 1 [4 4] 10.000000] (REPLY)
r 1.012191610 _1_ RTR  --- 0 AODV 48 [0 ffffffff 5 800] ------- [5:255 -1:255 28 0] [0x2 3 1 [4 0] [0 4]] (REQUEST)
r 1.012191695 _7_ RTR  --- 0 AODV 48 [0 ffffffff 5 800] ------- [5:255 -1:255 28 0] [0x2 3 1 [4 0] [0 4]] (REQUEST)
r 1.016813875 _5_ RTR  --- 0 AODV 44 [13a 5 4 800] ------- [4:255 0:255 30 5] [0x4 1 [4 4] 10.000000] (REPLY)
f 1.016813875 _5_ RTR  --- 0 AODV 44 [13a 5 4 800] ------- [4:255 0:255 29 1] [0x4 2 [4 4] 10.000000] (REPLY)
r 1.022325367 _1_ RTR  --- 0 AODV 44 [13a 1 5 800] ------- [4:255 0:255 29 1] [0x4 2 [4 4] 10.000000] (REPLY)
f 1.022325367 _1_ RTR  --- 0 AODV 44 [13a 1 5 800] ------- [4:255 0:255 28 0] [0x4 3 [4 4] 10.000000] (REPLY)
r 1.027534744 _0_ RTR  --- 0 AODV 44 [13a 0 1 800] ------- [4:255 0:255 28 0] [0x4 3 [4 4] 10.000000] (REPLY)
s 1.027534744 _0_ RTR  --- 0 tcp 40 [0 0 0 0] ------- [0:0 4:0 30 1] [0 0] 0 0
r 1.029939763 _1_ RTR  --- 0 tcp 40 [13a 1 0 800] ------- [0:0 4:0 30 1] [0 0] 1 0
f 1.029939763 _1_ RTR  --- 0 tcp 40 [13a 1 0 800] ------- [0:0 4:0 29 5] [0 0] 1 0
r 1.032305687 _5_ RTR  --- 0 tcp 40 [13a 5 1 800] ------- [0:0 4:0 29 5] [0 0] 2 0
f 1.032305687 _5_ RTR  --- 0 tcp 40 [13a 5 1 800] ------- [0:0 4:0 28 4] [0 0] 2 0
r 1.034171528 _4_ AGT  --- 0 tcp 40 [13a 4 5 800] ------- [0:0 4:0 28 4] [0 0] 3 0
s 1.034171528 _4_ AGT  --- 1 ack 40 [0 0 0 0] ------- [4:0 0:0 32 0] [0 0] 0 0
r 1.034171528 _4_ RTR  --- 1 ack 40 [0 0 0 0] ------- [4:0 0:0 32 0] [0 0] 0 0
s 1.034171528 _4_ RTR  --- 1 ack 40 [0 0 0 0] ------- [4:0 0:0 30 5] [0 0] 0 0
r 1.036357368 _5_ RTR  --- 1 ack 40 [13a 5 4 800] ------- [4:0 0:0 30 5] [0 0] 1 0
f 1.036357368 _5_ RTR  --- 1 ack 40 [13a 5 4 800] ------- [4:0 0:0 29 1] [0 0] 1 0
r 1.038263291 _1_ RTR  --- 1 ack 40 [13a 1 5 800] ------- [4:0 0:0 29 1] [0 0] 2 0
f 1.038263291 _1_ RTR  --- 1 ack 40 [13a 1 5 800] ------- [4:0 0:0 28 0] [0 0] 2 0
r 1.040348311 _0_ AGT  --- 1 ack 40 [13a 0 1 800] ------- [4:0 0:0 28 0] [0 0] 3 0
s 1.040348311 _0_ AGT  --- 2 tcp 1540 [0 0 0 0] ------- [0:0 4:0 32 0] [1 0] 0 0
r 1.040348311 _0_ RTR  --- 2 tcp 1540 [0 0 0 0] ------- [0:0 4:0 32 0] [1 0] 0 0
s 1.040348311 _0_ AGT  --- 3 tcp 1540 [0 0 0 0] ------- [0:0 4:0 32 0] [2 0] 0 0
r 1.040348311 _0_ RTR  --- 3 tcp 1540 [0 0 0 0] ------- [0:0 4:0 32 0] [2 0] 0 0
s 1.040348311 _0_ RTR  --- 2 tcp 1540 [0 0 0 0] ------- [0:0 4:0 30 1] [1 0] 0 0
s 1.040348311 _0_ RTR  --- 3 tcp 1540 [0 0 0 0] ------- [0:0 4:0 30 1] [2 0] 0 0
r 1.054273330 _1_ RTR  --- 2 tcp 1540 [13a 1 0 800] ------- [0:0 4:0 30 1] [1 0] 1 0
f 1.054273330 _1_ RTR  --- 2 tcp 1540 [13a 1 0 800] ------- [0:0 4:0 29 5] [1 0] 1 0
r 1.068318690 _1_ RTR  --- 3 tcp 1540 [13a 1 0 800] ------- [0:0 4:0 30 1] [2 0] 1 0
f 1.068318690 _1_ RTR  --- 3 tcp 1540 [13a 1 0 800] ------- [0:0 4:0 29 5] [2 0] 1 0
r 1.082344612 _5_ RTR  --- 2 tcp 1540 [13a 5 1 800] ------- [0:0 4:0 29 5] [1 0] 2 0
f 1.082344612 _5_ RTR  --- 2 tcp 1540 [13a 5 1 800] ------- [0:0 4:0 28 4] [1 0] 2 0
r 1.096231174 _5_ RTR  --- 3 tcp 1540 [13a 5 1 800] ------- [0:0 4:0 29 5] [2 0] 2 0
f 1.096231174 _5_ RTR  --- 3 tcp 1540 [13a 5 1 800] ------- [0:0 4:0 28 4] [2 0] 2 0
r 1.110577014 _4_ AGT  --- 2 tcp 1540 [13a 4 5 800] ------- [0:0 4:0 28 4] [1 0] 3 0
s 1.110577014 _4_ AGT  --- 4 ack 40 [0 0 0 0] ------- [4:0 0:0 32 0] [1 0] 0 0
r 1.110577014 _4_ RTR  --- 4 ack 40 [0 0 0 0] ------- [4:0 0:0 32 0] [1 0] 0 0
s 1.110577014 _4_ RTR  --- 4 ack 40 [0 0 0 0] ------- [4:0 0:0 30 5] [1 0] 0 0
r 1.112742854 _5_ RTR  --- 4 ack 40 [13a 5 4 800] ------- [4:0 0:0 30 5] [1 0] 1 0
f 1.112742854 _5_ RTR  --- 4 ack 40 [13a 5 4 800] ------- [4:0 0:0 29 1] [1 0] 1 0
r 1.126748694 _4_ AGT  --- 3 tcp 1540 [13a 4 5 800] ------- [0:0 4:0 28 4] [2 0] 3 0
s 1.126748694 _4_ AGT  --- 5 ack 40 [0 0 0 0] ------- [4:0 0:0 32 0] [2 0] 0 0
r 1.126748694 _4_ RTR  --- 5 ack 40 [0 0 0 0] ------- [4:0 0:0 32 0] [2 0] 0 0
s 1.126748694 _4_ RTR  --- 5 ack 40 [0 0 0 0] ------- [4:0 0:0 30 5] [2 0] 0 0
r 1.128694533 _5_ RTR  --- 5 ack 40 [13a 5 4 800] ------- [4:0 0:0 30 5] [2 0] 1 0
f 1.128694533 _5_ RTR  --- 5 ack 40 [13a 5 4 800] ------- [4:0 0:0 29 1] [2 0] 1 0
r 1.130600452 _1_ RTR  --- 4 ack 40 [13a 1 5 800] ------- [4:0 0:0 29 1] [1 0] 2 0
f 1.130600452 _1_ RTR  --- 4 ack 40 [13a 1 5 800] ------- [4:0 0:0 28 0] [1 0] 2 0
r 1.132427010 _1_ RTR  --- 5 ack 40 [13a 1 5 800] ------- [4:0 0:0 29 1] [2 0] 2 0
f 1.132427010 _1_ RTR  --- 5 ack 40 [13a 1 5 800] ------- [4:0 0:0 28 0] [2 0] 2 0
r 1.134732033 _0_ AGT  --- 4 ack 40 [13a 0 1 800] ------- [4:0 0:0 28 0] [1 0] 3 0
s 1.134732033 _0_ AGT  --- 6 tcp 1540 [0 0 0 0] ------- [0:0 4:0 32 0] [3 0] 0 0
r 1.134732033 _0_ RTR  --- 6 tcp 1540 [0 0 0 0] ------- [0:0 4:0 32 0] [3 0] 0 0
s 1.134732033 _0_ AGT  --- 7 tcp 1540 [0 0 0 0] ------- [0:0 4:0 32 0] [4 0] 0 0
r 1.134732033 _0_ RTR  --- 7 tcp 1540 [0 0 0 0] ------- [0:0 4:0 32 0] [4 0] 0 0
s 1.134732033 _0_ RTR  --- 6 tcp 1540 [0 0 0 0] ------- [0:0 4:0 30 1] [3 0] 0 0
s 1.134732033 _0_ RTR  --- 7 tcp 1540 [0 0 0 0] ------- [0:0 4:0 30 1] [4 0] 0 0
r 1.136717397 _0_ AGT  --- 5 ack 40 [13a 0 1 800] ------- [4:0 0:0 28 0] [2 0] 3 0
s 1.136717397 _0_ AGT  --- 8 tcp 1540 [0 0 0 0] ------- [0:0 4:0 32 0] [5 0] 0 0
r 1.136717397 _0_ RTR  --- 8 tcp 1540 [0 0 0 0] ------- [0:0 4:0 32 0] [5 0] 0 0
s 1.136717397 _0_ AGT  --- 9 tcp 1540 [0 0 0 0] ------- [0:0 4:0 32 0] [6 0] 0 0
r 1.136717397 _0_ RTR  --- 9 tcp 1540 [0 0 0 0] ------- [0:0 4:0 32 0] [6 0] 0 0
s 1.136717397 _0_ RTR  --- 8 tcp 1540 [0 0 0 0] ------- [0:0 4:0 30 1] [5 0] 0 0
s 1.136717397 _0_ RTR  --- 9 tcp 1540 [0 0 0 0] ------- [0:0 4:0 30 1] [6 0] 0 0
r 1.150702420 _1_ RTR  --- 6 tcp 1540 [13a 1 0 800] ------- [0:0 4:0 30 1] [3 0] 1 0
f 1.150702420 _1_ RTR  --- 6 tcp 1540 [13a 1 0 800] ------- [0:0 4:0 29 5] [3 0] 1 0
r 1.164588338 _5_ RTR  --- 6 tcp 1540 [13a 5 1 800] ------- [0:0 4:0 29 5] [3 0] 2 0
f 1.164588338 _5_ RTR  --- 6 tcp 1540 [13a 5 1 800] ------- [0:0 4:0 28 4] [3 0] 2 0
r 1.178714177 _4_ AGT  --- 6 tcp 1540 [13a 4 5 800] ------- [0:0 4:0 28 4] [3 0] 3 0
s 1.178714177 _4_ AGT  --- 10 ack 40 [0 0 0 0] ------- [4:0 0:0 32 0] [3 0] 0 0
r 1.178714177 _4_ RTR  --- 10 ack 40 [0 0 0 0] ------- [4:0 0:0 32 0] [3 0] 0 0
s 1.178714177 _4_ RTR  --- 10 ack 40 [0 0 0 0] ------- [4:0 0:0 30 5] [3 0] 0 0
r 1.180780017 _5_ RTR  --- 10 ack 40 [13a 5 4 800] ------- [4:0 0:0 30 5] [3 0] 1 0
f 1.180780017 _5_ RTR  --- 10 ack 40 [13a 5 4 800] ------- [4:0 0:0 29 1] [3 0] 1 0
r 1.182685932 _1_ RTR  --- 10 ack 40 [13a 1 5 800] ------- [4:0 0:0 29 1] [3 0] 2 0
f 1.182685932 _1_ RTR  --- 10 ack 40 [13a 1 5 800] ------- [4:0 0:0 28 0] [3 0] 2 0
r 1.184530958 _0_ AGT  --- 10 ack 40 [13a 0 1 800] ------- [4:0 0:0 28 0] [3 0] 3 0
s 1.184530958 _0_ AGT  --- 11 tcp 1540 [0 0 0 0] ------- [0:0 4:0 32 0] [7 0] 0 0
r 1.184530958 _0_ RTR  --- 11 tcp 1540 [0 0 0 0] ------- [0:0 4:0 32 0] [7 0] 0 0
s 1.184530958 _0_ AGT  --- 12 tcp 1540 [0 0 0 0] ------- [0:0 4:0 32 0] [8 0] 0 0
r 1.184530958 _0_ RTR  --- 12 tcp 1540 [0 0 0 0] ------- [0:0 4:0 32 0] [8 0] 0 0
s 1.184530958 _0_ RTR  --- 11 tcp 1540 [0 0 0 0] ------- [0:0 4:0 30 1] [7 0] 0 0
s 1.184530958 _0_ RTR  --- 12 tcp 1540 [0 0 0 0] ------- [0:0 4:0 30 1] [8 0] 0 0
r 1.198375983 _1_ RTR  --- 7 tcp 1540 [13a 1 0 800] ------- [0:0 4:0 30 1] [4 0] 1 0
f 1.198375983 _1_ RTR  --- 7 tcp 1540 [13a 1 0 800] ------- [0:0 4:0 29 5] [4 0] 1 0
r 1.212321350 _1_ RTR  --- 8 tcp 1540 [13a 1 0 800] ------- [0:0 4:0 30 1] [5 0] 1 0
f 1.212321350 _1_ RTR  --- 8 tcp 1540 [13a 1 0 800] ------- [0:0 4:0 29 5] [5 0] 1 0
r 1.226247264 _5_ RTR  --- 7 tcp 1540 [13a 5 1 800] ------- [0:0 4:0 29 5] [4 0] 2 0
f 1.226247264 _5_ RTR  --- 7 tcp 1540 [13a 5 1 800] ------- [0:0 4:0 28 4] [4 0] 2 0
r 1.240113814 _5_ RTR  --- 8 tcp 1540 [13a 5 1 800] ------- [0:0 4:0 29 5] [5 0] 2 0
f 1.240113814 _5_ RTR  --- 8 tcp 1540 [13a 5 1 800] ------- [0:0 4:0 28 4] [5 0] 2 0
r 1.254279654 _4_ AGT  --- 7 tcp 1540 [13a 4 5 800] ------- [0:0 4:0 28 4] [4 0] 3 0
s 1.254279654 _4_ AGT  --- 13 ack 40 [0 0 0 0] ------- [4:0 0:0 32 0] [4 0] 0 0
r 1.254279654 _4_ RTR  --- 13 ack 40 [0 0 0 0] ------- [4:0 0:0 32 0] [4 0] 0 0
s 1.254279654 _4_ RTR  --- 13 ack 40 [0 0 0 0] ------- [4:0 0:0 30 5] [4 0] 0 0
r 1.256225493 _5_ RTR  --- 13 ack 40 [13a 5 4 800] ------- [4:0 0:0 30 5] [4 0] 1 0
f 1.256225493 _5_ RTR  --- 13 ack 40 [13a 5 4 800] ------- [4:0 0:0 29 1] [4 0] 1 0
r 1.270151333 _4_ AGT  --- 8 tcp 1540 [13a 4 5 800] ------- [0:0 4:0 28 4] [5 0] 3 0
s 1.270151333 _4_ AGT  --- 14 ack 40 [0 0 0 0] ------- [4:0 0:0 32 0] [5 0] 0 0
r 1.270151333 _4_ RTR  --- 14 ack 40 [0 0 0 0] ------- [4:0 0:0 32 0] [5 0] 0 0
s 1.270151333 _4_ RTR  --- 14 ack 40 [0 0 0 0] ------- [4:0 0:0 30 5] [5 0] 0 0
r 1.271997173 _5_ RTR  --- 14 ack 40 [13a 5 4 800] ------- [4:0 0:0 30 5] [5 0] 1 0
f 1.271997173 _5_ RTR  --- 14 ack 40 [13a 5 4 800] ------- [4:0 0:0 29 1] [5 0] 1 0
r 1.273903083 _1_ RTR  --- 13 ack 40 [13a 1 5 800] ------- [4:0 0:0 29 1] [4 0] 2 0
f 1.273903083 _1_ RTR  --- 13 ack 40 [13a 1 5 800] ------- [4:0 0:0 28 0] [4 0] 2 0
r 1.275808111 _0_ AGT  --- 13 ack 40 [13a 0 1 800] ------- [4:0 0:0 28 0] [4 0] 3 0
s 1.275808111 _0_ AGT  --- 15 tcp 1540 [0 0 0 0] ------- [0:0 4:0 32 0] [9 0] 0 0
r 1.275808111 _0_ RTR  --- 15 tcp 1540 [0 0 0 0] ------- [0:0 4:0 32 0] [9 0] 0 0
s 1.275808111 _0_ AGT  --- 16 tcp 1540 [0 0 0 0] ------- [0:0 4:0 32 0] [10 0] 0 0
r 1.275808111 _0_ RTR  --- 16 tcp 1540 [0 0 0 0] ------- [0:0 4:0 32 0] [10 0] 0 0
s 1.275808111 _0_ RTR  --- 15 tcp 1540 [0 0 0 0] ------- [0:0 4:0 30 1] [9 0] 0 0
s 1.275808111 _0_ RTR  --- 16 tcp 1540 [0 0 0 0] ------- [0:0 4:0 30 1] [10 0] 0 0
r 1.289813140 _1_ RTR  --- 9 tcp 1540 [13a 1 0 800] ------- [0:0 4:0 30 1] [6 0] 1 0
f 1.289813140 _1_ RTR  --- 9 tcp 1540 [13a 1 0 800] ------- [0:0 4:0 29 5] [6 0] 1 0
r 1.291829663 _1_ RTR  --- 14 ack 40 [13a 1 5 800] ------- [4:0 0:0 29 1] [5 0] 2 0
f 1.291829663 _1_ RTR  --- 14 ack 40 [13a 1 5 800] ------- [4:0 0:0 28 0] [5 0] 2 0
r 1.305815572 _5_ RTR  --- 9 tcp 1540 [13a 5 1 800] ------- [0:0 4:0 29 5] [6 0] 2 0
f 1.305815572 _5_ RTR  --- 9 tcp 1540 [13a 5 1 800] ------- [0:0 4:0 28 4] [6 0] 2 0
r 1.319701411 _4_ AGT  --- 9 tcp 1540 [13a 4 5 800] ------- [0:0 4:0 28 4] [6 0] 3 0
s 1.319701411 _4_ AGT  --- 17 ack 40 [0 0 0 0] ------- [4:0 0:0 32 0] [6 0] 0 0
r 1.319701411 _4_ RTR  --- 17 ack 40 [0 0 0 0] ------- [4:0 0:0 32 0] [6 0] 0 0
s 1.319701411 _4_ RTR  --- 17 ack 40 [0 0 0 0] ------- [4:0 0:0 30 5] [6 0] 0 0
r 1.321727251 _5_ RTR  --- 17 ack 40 [13a 5 4 800] ------- [4:0 0:0 30 5] [6 0] 1 0
f 1.321727251 _5_ RTR  --- 17 ack 40 [13a 5 4 800] ------- [4:0 0:0 29 1] [6 0] 1 0
r 1.324142907 _0_ AGT  --- 14 ack 40 [13a 0 1 800] ------- [4:0 0:0 28 0] [5 0] 3 0
s 1.324142907 _0_ AGT  --- 18 tcp 1540 [0 0 0 0] ------- [0:0 4:0 32 0] [11 0] 0 0
r 1.324142907 _0_ RTR  --- 18 tcp 1540 [0 0 0 0] ------- [0:0 4:0 32 0] [11 0] 0 0
s 1.324142907 _0_ AGT  --- 19 tcp 1540 [0 0 0 0] ------- [0:0 4:0 32 0] [12 0] 0 0
r 1.324142907 _0_ RTR  --- 19 tcp 1540 [0 0 0 0] ------- [0:0 4:0 32 0] [12 0] 0 0
s 1.324142907 _0_ RTR  --- 18 tcp 1540 [0 0 0 0] ------- [0:0 4:0 30 1] [11 0] 0 0
s 1.324142907 _0_ RTR  --- 19 tcp 1540 [0 0 0 0] ------- [0:0 4:0 30 1] [12 0] 0 0
r 1.338067938 _1_ RTR  --- 11 tcp 1540 [13a 1 0 800] ------- [0:0 4:0 30 1] [7 0] 1 0
f 1.338067938 _1_ RTR  --- 11 tcp 1540 [13a 1 0 800] ------- [0:0 4:0 29 5] [7 0] 1 0
r 1.339964457 _1_ RTR  --- 17 ack 40 [13a 1 5 800] ------- [4:0 0:0 29 1] [6 0] 2 0
f 1.339964457 _1_ RTR  --- 17 ack 40 [13a 1 5 800] ------- [4:0 0:0 28 0] [6 0] 2 0
r 1.354079809 _1_ RTR  --- 12 tcp 1540 [13a 1 0 800] ------- [0:0 4:0 30 1] [8 0] 1 0
f 1.354079809 _1_ RTR  --- 12 tcp 1540 [13a 1 0 800] ------- [0:0 4:0 29 5] [8 0] 1 0
r 1.368005714 _5_ RTR  --- 11 tcp 1540 [13a 5 1 800] ------- [0:0 4:0 29 5] [7 0] 2 0
f 1.368005714 _5_ RTR  --- 11 tcp 1540 [13a 5 1 800] ------- [0:0 4:0 28 4] [7 0] 2 0
r 1.369871382 _0_ AGT  --- 17 ack 40 [13a 0 1 800] ------- [4:0 0:0 28 0] [6 0] 3 0
s 1.369871382 _0_ AGT  --- 20 tcp 1540 [0 0 0 0] ------- [0:0 4:0 32 0] [13 0] 0 0
r 1.369871382 _0_ RTR  --- 20 tcp 1540 [0 0 0 0] ------- [0:0 4:0 32 0] [13 0] 0 0
s 1.369871382 _0_ AGT  --- 21 tcp 1540 [0 0 0 0] ------- [0:0 4:0 32 0] [14 0] 0 0
r 1.369871382 _0_ RTR  --- 21 tcp 1540 [0 0 0 0] ------- [0:0 4:0 32 0] [14 0] 0 0
s 1.369871382 _0_ RTR  --- 20 tcp 1540 [0 0 0 0] ------- [0:0 4:0 30 1] [13 0] 0 0
s 1.369871382 _0_ RTR  --- 21 tcp 1540 [0 0 0 0] ------- [0:0 4:0 30 1] [14 0] 0 0
r 1.383896414 _1_ RTR  --- 15 tcp 1540 [13a 1 0 800] ------- [0:0 4:0 30 1] [9 0] 1 0
f 1.383896414 _1_ RTR  --- 15 tcp 1540 [13a 1 0 800] ------- [0:0 4:0 29 5] [9 0] 1 0
r 1.397941792 _1_ RTR  --- 16 tcp 1540 [13a 1 0 800] ------- [0:0 4:0 30 1] [10 0] 1 0
f 1.397941792 _1_ RTR  --- 16 tcp 1540 [13a 1 0 800] ------- [0:0 4:0 29 5] [10 0] 1 0
r 1.411927694 _5_ RTR  --- 12 tcp 1540 [13a 5 1 800] ------- [0:0 4:0 29 5] [8 0] 2 0
f 1.411927694 _5_ RTR  --- 12 tcp 1540 [13a 5 1 800] ------- [0:0 4:0 28 4] [8 0] 2 0
r 1.425793534 _4_ AGT  --- 11 tcp 1540 [13a 4 5 800] ------- [0:0 4:0 28 4] [7 0] 3 0
s 1.425793534 _4_ AGT  --- 22 ack 40 [0 0 0 0] ------- [4:0 0:0 32 0] [7 0] 0 0
r 1.425793534 _4_ RTR  --- 22 ack 40 [0 0 0 0] ------- [4:0 0:0 32 0] [7 0] 0 0
s 1.425793534 _4_ RTR  --- 22 ack 40 [0 0 0 0] ------- [4:0 0:0 30 5] [7 0] 0 0
r 1.440004108 _1_ RTR  --- 18 tcp 1540 [13a 1 0 800] ------- [0:0 4:0 30 1] [11 0] 1 0
f 1.440004108 _1_ RTR  --- 18 tcp 1540 [13a 1 0 800] ------- [0:0 4:0 29 5] [11 0] 1 0
r 1.453900558 _4_ AGT  --- 12 tcp 1540 [13a 4 5 800] ------- [0:0 4:0 28 4] [8 0] 3 0
s 1.453900558 _4_ AGT  --- 23 ack 40 [0 0 0 0] ------- [4:0 0:0 32 0] [8 0] 0 0
r 1.453900558 _4_ RTR  --- 23 ack 40 [0 0 0 0] ------- [4:0 0:0 32 0] [8 0] 0 0
s 1.453900558 _4_ RTR  --- 23 ack 40 [0 0 0 0] ------- [4:0 0:0 30 5] [8 0] 0 0
r 1.455786398 _5_ RTR  --- 22 ack 40 [13a 5 4 800] ------- [4:0 0:0 30 5] [7 0] 1 0
f 1.455786398 _5_ RTR  --- 22 ack 40 [13a 5 4 800] ------- [4:0 0:0 29 1] [7 0] 1 0
r 1.469722920 _5_ RTR  --- 15 tcp 1540 [13a 5 1 800] ------- [0:0 4:0 29 5] [9 0] 2 0
f 1.469722920 _5_ RTR  --- 15 tcp 1540 [13a 5 1 800] ------- [0:0 4:0 28 4] [9 0] 2 0
r 1.483549452 _5_ RTR  --- 16 tcp 1540 [13a 5 1 800] ------- [0:0 4:0 29 5] [10 0] 2 0
f 1.483549452 _5_ RTR  --- 16 tcp 1540 [13a 5 1 800] ------- [0:0 4:0 28 4] [10 0] 2 0
r 1.485395349 _1_ RTR  --- 22 ack 40 [13a 1 5 800] ------- [4:0 0:0 29 1] [7 0] 2 0
f 1.485395349 _1_ RTR  --- 22 ack 40 [13a 1 5 800] ------- [4:0 0:0 28 0] [7 0] 2 0
r 1.499330710 _1_ RTR  --- 19 tcp 1540 [13a 1 0 800] ------- [0:0 4:0 30 1] [12 0] 1 0
f 1.499330710 _1_ RTR  --- 19 tcp 1540 [13a 1 0 800] ------- [0:0 4:0 29 5] [12 0] 1 0
r 1.513196606 _5_ RTR  --- 18 tcp 1540 [13a 5 1 800] ------- [0:0 4:0 29 5] [11 0] 2 0
f 1.513196606 _5_ RTR  --- 18 tcp 1540 [13a 5 1 800] ------- [0:0 4:0 28 4] [11 0] 2 0
r 1.515193050 _5_ RTR  --- 23 ack 40 [13a 5 4 800] ------- [4:0 0:0 30 5] [8 0] 1 0
f 1.515193050 _5_ RTR  --- 23 ack 40 [13a 5 4 800] ------- [4:0 0:0 29 1] [8 0] 1 0
r 1.529118889 _4_ AGT  --- 15 tcp 1540 [13a 4 5 800] ------- [0:0 4:0 28 4] [9 0] 3 0
s 1.529118889 _4_ AGT  --- 24 ack 40 [0 0 0 0] ------- [4:0 0:0 32 0] [9 0] 0 0
r 1.529118889 _4_ RTR  --- 24 ack 40 [0 0 0 0] ------- [4:0 0:0 32 0] [9 0] 0 0
s 1.529118889 _4_ RTR  --- 24 ack 40 [0 0 0 0] ------- [4:0 0:0 30 5] [9 0] 0 0
r 1.543265342 _4_ AGT  --- 16 tcp 1540 [13a 4 5 800] ------- [0:0 4:0 28 4] [10 0] 3 0
s 1.543265342 _4_ AGT  --- 25 ack 40 [0 0 0 0] ------- [4:0 0:0 32 0] [10 0] 0 0
r 1.543265342 _4_ RTR  --- 25 ack 40 [0 0 0 0] ------- [4:0 0:0 32 0] [10 0] 0 0
s 1.543265342 _4_ RTR  --- 25 ack 40 [0 0 0 0] ------- [4:0 0:0 30 5] [10 0] 0 0
r 1.545191181 _5_ RTR  --- 24 ack 40 [13a 5 4 800] ------- [4:0 0:0 30 5] [9 0] 1 0
f 1.545191181 _5_ RTR  --- 24 ack 40 [13a 5 4 800] ------- [4:0 0:0 29 1] [9 0] 1 0
r 1.547037634 _5_ RTR  --- 25 ack 40 [13a 5 4 800] ------- [4:0 0:0 30 5] [10 0] 1 0
f 1.547037634 _5_ RTR  --- 25 ack 40 [13a 5 4 800] ------- [4:0 0:0 29 1] [10 0] 1 0
r 1.560923473 _4_ AGT  --- 18 tcp 1540 [13a 4 5 800] ------- [0:0 4:0 28 4] [11 0] 3 0
s 1.560923473 _4_ AGT  --- 26 ack 40 [0 0 0 0] ------- [4:0 0:0 32 0] [11 0] 0 0
r 1.560923473 _4_ RTR  --- 26 ack 40 [0 0 0 0] ------- [4:0 0:0 32 0] [11 0] 0 0
s 1.560923473 _4_ RTR  --- 26 ack 40 [0 0 0 0] ------- [4:0 0:0 30 5] [11 0] 0 0
r 1.562849979 _1_ RTR  --- 23 ack 40 [13a 1 5 800] ------- [4:0 0:0 29 1] [8 0] 2 0
f 1.562849979 _1_ RTR  --- 23 ack 40 [13a 1 5 800] ------- [4:0 0:0 28 0] [8 0] 2 0
r 1.564676503 _1_ RTR  --- 24 ack 40 [13a 1 5 800] ------- [4:0 0:0 29 1] [9 0] 2 0
f 1.564676503 _1_ RTR  --- 24 ack 40 [13a 1 5 800] ------- [4:0 0:0 28 0] [9 0] 2 0
r 1.566563026 _1_ RTR  --- 25 ack 40 [13a 1 5 800] ------- [4:0 0:0 29 1] [10 0] 2 0
f 1.566563026 _1_ RTR  --- 25 ack 40 [13a 1 5 800] ------- [4:0 0:0 28 0] [10 0] 2 0
r 1.568548067 _0_ AGT  --- 22 ack 40 [13a 0 1 800] ------- [4:0 0:0 28 0] [7 0] 3 0
s 1.568548067 _0_ AGT  --- 27 tcp 1540 [0 0 0 0] ------- [0:0 4:0 32 0] [15 0] 0 0
r 1.568548067 _0_ RTR  --- 27 tcp 1540 [0 0 0 0] ------- [0:0 4:0 32 0] [15 0] 0 0
s 1.568548067 _0_ AGT  --- 28 tcp 1540 [0 0 0 0] ------- [0:0 4:0 32 0] [16 0] 0 0
r 1.568548067 _0_ RTR  --- 28 tcp 1540 [0 0 0 0] ------- [0:0 4:0 32 0] [16 0] 0 0
s 1.568548067 _0_ RTR  --- 27 tcp 1540 [0 0 0 0] ------- [0:0 4:0 30 1] [15 0] 0 0
s 1.568548067 _0_ RTR  --- 28 tcp 1540 [0 0 0 0] ------- [0:0 4:0 30 1] [16 0] 0 0
r 1.582553107 _1_ RTR  --- 20 tcp 1540 [13a 1 0 800] ------- [0:0 4:0 30 1] [13 0] 1 0
f 1.582553107 _1_ RTR  --- 20 tcp 1540 [13a 1 0 800] ------- [0:0 4:0 29 5] [13 0] 1 0
r 1.585646833 _5_ RTR  --- 26 ack 40 [13a 5 4 800] ------- [4:0 0:0 30 5] [11 0] 1 0
f 1.585646833 _5_ RTR  --- 26 ack 40 [13a 5 4 800] ------- [4:0 0:0 29 1] [11 0] 1 0
r 1.587532725 _1_ RTR  --- 26 ack 40 [13a 1 5 800] ------- [4:0 0:0 29 1] [11 0] 2 0
f 1.587532725 _1_ RTR  --- 26 ack 40 [13a 1 5 800] ------- [4:0 0:0 28 0] [11 0] 2 0
r 1.601888091 _1_ RTR  --- 21 tcp 1540 [13a 1 0 800] ------- [0:0 4:0 30 1] [14 0] 1 0
f 1.601888091 _1_ RTR  --- 21 tcp 1540 [13a 1 0 800] ------- [0:0 4:0 29 5] [14 0] 1 0
r 1.615733480 _1_ RTR  --- 27 tcp 1540 [13a 1 0 800] ------- [0:0 4:0 30 1] [15 0] 1 0
f 1.615733480 _1_ RTR  --- 27 tcp 1540 [13a 1 0 800] ------- [0:0 4:0 29 5] [15 0] 1 0
r 1.629579370 _5_ RTR  --- 19 tcp 1540 [13a 5 1 800] ------- [0:0 4:0 29 5] [12 0] 2 0
f 1.629579370 _5_ RTR  --- 19 tcp 1540 [13a 5 1 800] ------- [0:0 4:0 28 4] [12 0] 2 0
r 1.631785042 _0_ AGT  --- 23 ack 40 [13a 0 1 800] ------- [4:0 0:0 28 0] [8 0] 3 0
s 1.631785042 _0_ AGT  --- 29 tcp 1540 [0 0 0 0] ------- [0:0 4:0 32 0] [17 0] 0 0
r 1.631785042 _0_ RTR  --- 29 tcp 1540 [0 0 0 0] ------- [0:0 4:0 32 0] [17 0] 0 0
s 1.631785042 _0_ AGT  --- 30 tcp 1540 [0 0 0 0] ------- [0:0 4:0 32 0] [18 0] 0 0
r 1.631785042 _0_ RTR  --- 30 tcp 1540 [0 0 0 0] ------- [0:0 4:0 32 0] [18 0] 0 0
s 1.631785042 _0_ RTR  --- 29 tcp 1540 [0 0 0 0] ------- [0:0 4:0 30 1] [17 0] 0 0
s 1.631785042 _0_ RTR  --- 30 tcp 1540 [0 0 0 0] ------- [0:0 4:0 30 1] [18 0] 0 0
r 1.645970085 _1_ RTR  --- 28 tcp 1540 [13a 1 0 800] ------- [0:0 4:0 30 1] [16 0] 1 0
f 1.645970085 _1_ RTR  --- 28 tcp 1540 [13a 1 0 800] ------- [0:0 4:0 29 5] [16 0] 1 0
r 1.659906532 _4_ AGT  --- 19 tcp 1540 [13a 4 5 800] ------- [0:0 4:0 28 4] [12 0] 3 0
s 1.659906532 _4_ AGT  --- 31 ack 40 [0 0 0 0] ------- [4:0 0:0 32 0] [12 0] 0 0
r 1.659906532 _4_ RTR  --- 31 ack 40 [0 0 0 0] ------- [4:0 0:0 32 0] [12 0] 0 0
s 1.659906532 _4_ RTR  --- 31 ack 40 [0 0 0 0] ------- [4:0 0:0 30 5] [12 0] 0 0
r 1.661912372 _5_ RTR  --- 31 ack 40 [13a 5 4 800] ------- [4:0 0:0 30 5] [12 0] 1 0
f 1.661912372 _5_ RTR  --- 31 ack 40 [13a 5 4 800] ------- [4:0 0:0 29 1] [12 0] 1 0
r 1.663808037 _0_ AGT  --- 24 ack 40 [13a 0 1 800] ------- [4:0 0:0 28 0] [9 0] 3 0
s 1.663808037 _0_ AGT  --- 32 tcp 1540 [0 0 0 0] ------- [0:0 4:0 32 0] [19 0] 0 0
r 1.663808037 _0_ RTR  --- 32 tcp 1540 [0 0 0 0] ------- [0:0 4:0 32 0] [19 0] 0 0
s 1.663808037 _0_ AGT  --- 33 tcp 1540 [0 0 0 0] ------- [0:0 4:0 32 0] [20 0] 0 0
r 1.663808037 _0_ RTR  --- 33 tcp 1540 [0 0 0 0] ------- [0:0 4:0 32 0] [20 0] 0 0
s 1.663808037 _0_ RTR  --- 32 tcp 1540 [0 0 0 0] ------- [0:0 4:0 30 1] [19 0] 0 0
s 1.663808037 _0_ RTR  --- 33 tcp 1540 [0 0 0 0] ------- [0:0 4:0 30 1] [20 0] 0 0
r 1.665773429 _0_ AGT  --- 25 ack 40 [13a 0 1 800] ------- [4:0 0:0 28 0] [10 0] 3 0
s 1.665773429 _0_ AGT  --- 34 tcp 1540 [0 0 0 0] ------- [0:0 4:0 32 0] [21 0] 0 0
r 1.665773429 _0_ RTR  --- 34 tcp 1540 [0 0 0 0] ------- [0:0 4:0 32 0] [21 0] 0 0
s 1.665773429 _0_ AGT  --- 35 tcp 1540 [0 0 0 0] ------- [0:0 4:0 32 0] [22 0] 0 0
r 1.665773429 _0_ RTR  --- 35 tcp 1540 [0 0 0 0] ------- [0:0 4:0 32 0] [22 0] 0 0
s 1.665773429 _0_ RTR  --- 34 tcp 1540 [0 0 0 0] ------- [0:0 4:0 30 1] [21 0] 0 0
s 1.665773429 _0_ RTR  --- 35 tcp 1540 [0 0 0 0] ------- [0:0 4:0 30 1] [22 0] 0 0
r 1.679678473 _1_ RTR  --- 29 tcp 1540 [13a 1 0 800] ------- [0:0 4:0 30 1] [17 0] 1 0
f 1.679678473 _1_ RTR  --- 29 tcp 1540 [13a 1 0 800] ------- [0:0 4:0 29 5] [17 0] 1 0
r 1.693503866 _1_ RTR  --- 30 tcp 1540 [13a 1 0 800] ------- [0:0 4:0 30 1] [18 0] 1 0
f 1.693503866 _1_ RTR  --- 30 tcp 1540 [13a 1 0 800] ------- [0:0 4:0 29 5] [18 0] 1 0
r 1.707429260 _1_ RTR  --- 32 tcp 1540 [13a 1 0 800] ------- [0:0 4:0 30 1] [19 0] 1 0
f 1.707429260 _1_ RTR  --- 32 tcp 1540 [13a 1 0 800] ------- [0:0 4:0 29 5] [19 0] 1 0
r 1.721254655 _1_ RTR  --- 33 tcp 1540 [13a 1 0 800] ------- [0:0 4:0 30 1] [20 0] 1 0
f 1.721254655 _1_ RTR  --- 33 tcp 1540 [13a 1 0 800] ------- [0:0 4:0 29 5] [20 0] 1 0
r 1.735140538 _5_ RTR  --- 20 tcp 1540 [13a 5 1 800] ------- [0:0 4:0 29 5] [13 0] 2 0
f 1.735140538 _5_ RTR  --- 20 tcp 1540 [13a 5 1 800] ------- [0:0 4:0 28 4] [13 0] 2 0
r 1.737226421 _1_ RTR  --- 31 ack 40 [13a 1 5 800] ------- [4:0 0:0 29 1] [12 0] 2 0
f 1.737226421 _1_ RTR  --- 31 ack 40 [13a 1 5 800] ------- [4:0 0:0 28 0] [12 0] 2 0
r 1.739371468 _0_ AGT  --- 26 ack 40 [13a 0 1 800] ------- [4:0 0:0 28 0] [11 0] 3 0
s 1.739371468 _0_ AGT  --- 36 tcp 1540 [0 0 0 0] ------- [0:0 4:0 32 0] [23 0] 0 0
r 1.739371468 _0_ RTR  --- 36 tcp 1540 [0 0 0 0] ------- [0:0 4:0 32 0] [23 0] 0 0
s 1.739371468 _0_ AGT  --- 37 tcp 1540 [0 0 0 0] ------- [0:0 4:0 32 0] [24 0] 0 0
r 1.739371468 _0_ RTR  --- 37 tcp 1540 [0 0 0 0] ------- [0:0 4:0 32 0] [24 0] 0 0
s 1.739371468 _0_ RTR  --- 36 tcp 1540 [0 0 0 0] ------- [0:0 4:0 30 1] [23 0] 0 0
s 1.739371468 _0_ RTR  --- 37 tcp 1540 [0 0 0 0] ------- [0:0 4:0 30 1] [24 0] 0 0
r 1.753416516 _1_ RTR  --- 34 tcp 1540 [13a 1 0 800] ------- [0:0 4:0 30 1] [21 0] 1 0
f 1.753416516 _1_ RTR  --- 34 tcp 1540 [13a 1 0 800] ------- [0:0 4:0 29 5] [21 0] 1 0
r 1.767461913 _1_ RTR  --- 35 tcp 1540 [13a 1 0 800] ------- [0:0 4:0 30 1] [22 0] 1 0
f 1.767461913 _1_ RTR  --- 35 tcp 1540 [13a 1 0 800] ------- [0:0 4:0 29 5] [22 0] 1 0
r 1.781427793 _5_ RTR  --- 21 tcp 1540 [13a 5 1 800] ------- [0:0 4:0 29 5] [14 0] 2 0
f 1.781427793 _5_ RTR  --- 21 tcp 1540 [13a 5 1 800] ------- [0:0 4:0 28 4] [14 0] 2 0
r 1.795293633 _4_ AGT  --- 20 tcp 1540 [13a 4 5 800] ------- [0:0 4:0 28 4] [13 0] 3 0
s 1.795293633 _4_ AGT  --- 38 ack 40 [0 0 0 0] ------- [4:0 0:0 32 0] [13 0] 0 0
r 1.795293633 _4_ RTR  --- 38 ack 40 [0 0 0 0] ------- [4:0 0:0 32 0] [13 0] 0 0
s 1.795293633 _4_ RTR  --- 38 ack 40 [0 0 0 0] ------- [4:0 0:0 30 5] [13 0] 0 0
r 1.797359472 _5_ RTR  --- 38 ack 40 [13a 5 4 800] ------- [4:0 0:0 30 5] [13 0] 1 0
f 1.797359472 _5_ RTR  --- 38 ack 40 [13a 5 4 800] ------- [4:0 0:0 29 1] [13 0] 1 0
r 1.811355970 _5_ RTR  --- 27 tcp 1540 [13a 5 1 800] ------- [0:0 4:0 29 5] [15 0] 2 0
f 1.811355970 _5_ RTR  --- 27 tcp 1540 [13a 5 1 800] ------- [0:0 4:0 28 4] [15 0] 2 0
r 1.825301809 _4_ AGT  --- 21 tcp 1540 [13a 4 5 800] ------- [0:0 4:0 28 4] [14 0] 3 0
s 1.825301809 _4_ AGT  --- 39 ack 40 [0 0 0 0] ------- [4:0 0:0 32 0] [14 0] 0 0
r 1.825301809 _4_ RTR  --- 39 ack 40 [0 0 0 0] ------- [4:0 0:0 32 0] [14 0] 0 0
s 1.825301809 _4_ RTR  --- 39 ack 40 [0 0 0 0] ------- [4:0 0:0 30 5] [14 0] 0 0
r 1.827127649 _5_ RTR  --- 39 ack 40 [13a 5 4 800] ------- [4:0 0:0 30 5] [14 0] 1 0
f 1.827127649 _5_ RTR  --- 39 ack 40 [13a 5 4 800] ------- [4:0 0:0 29 1] [14 0] 1 0
r 1.841084144 _5_ RTR  --- 28 tcp 1540 [13a 5 1 800] ------- [0:0 4:0 29 5] [16 0] 2 0
f 1.841084144 _5_ RTR  --- 28 tcp 1540 [13a 5 1 800] ------- [0:0 4:0 28 4] [16 0] 2 0
r 1.855150646 _5_ RTR  --- 29 tcp 1540 [13a 5 1 800] ------- [0:0 4:0 29 5] [17 0] 2 0
f 1.855150646 _5_ RTR  --- 29 tcp 1540 [13a 5 1 800] ------- [0:0 4:0 28 4] [17 0] 2 0
r 1.868977146 _5_ RTR  --- 30 tcp 1540 [13a 5 1 800] ------- [0:0 4:0 29 5] [18 0] 2 0
f 1.868977146 _5_ RTR  --- 30 tcp 1540 [13a 5 1 800] ------- [0:0 4:0 28 4] [18 0] 2 0
r 1.870823021 _1_ RTR  --- 38 ack 40 [13a 1 5 800] ------- [4:0 0:0 29 1] [13 0] 2 0
f 1.870823021 _1_ RTR  --- 38 ack 40 [13a 1 5 800] ------- [4:0 0:0 28 0] [13 0] 2 0
r 1.884768896 _5_ RTR  --- 32 tcp 1540 [13a 5 1 800] ------- [0:0 4:0 29 5] [19 0] 2 0
f 1.884768896 _5_ RTR  --- 32 tcp 1540 [13a 5 1 800] ------- [0:0 4:0 28 4] [19 0] 2 0
r 1.898755394 _5_ RTR  --- 33 tcp 1540 [13a 5 1 800] ------- [0:0 4:0 29 5] [20 0] 2 0
f 1.898755394 _5_ RTR  --- 33 tcp 1540 [13a 5 1 800] ------- [0:0 4:0 28 4] [20 0] 2 0
r 1.912681234 _4_ AGT  --- 27 tcp 1540 [13a 4 5 800] ------- [0:0 4:0 28 4] [15 0] 3 0
s 1.912681234 _4_ AGT  --- 40 ack 40 [0 0 0 0] ------- [4:0 0:0 32 0] [15 0] 0 0
r 1.912681234 _4_ RTR  --- 40 ack 40 [0 0 0 0] ------- [4:0 0:0 32 0] [15 0] 0 0
s 1.912681234 _4_ RTR  --- 40 ack 40 [0 0 0 0] ------- [4:0 0:0 30 5] [15 0] 0 0
r 1.914567074 _5_ RTR  --- 40 ack 40 [13a 5 4 800] ------- [4:0 0:0 30 5] [15 0] 1 0
f 1.914567074 _5_ RTR  --- 40 ack 40 [13a 5 4 800] ------- [4:0 0:0 29 1] [15 0] 1 0
r 1.916862744 _0_ AGT  --- 31 ack 40 [13a 0 1 800] ------- [4:0 0:0 28 0] [12 0] 3 0
s 1.916862744 _0_ AGT  --- 41 tcp 1540 [0 0 0 0] ------- [0:0 4:0 32 0] [25 0] 0 0
r 1.916862744 _0_ RTR  --- 41 tcp 1540 [0 0 0 0] ------- [0:0 4:0 32 0] [25 0] 0 0
s 1.916862744 _0_ AGT  --- 42 tcp 1540 [0 0 0 0] ------- [0:0 4:0 32 0] [26 0] 0 0
r 1.916862744 _0_ RTR  --- 42 tcp 1540 [0 0 0 0] ------- [0:0 4:0 32 0] [26 0] 0 0
s 1.916862744 _0_ RTR  --- 41 tcp 1540 [0 0 0 0] ------- [0:0 4:0 30 1] [25 0] 0 0
s 1.916862744 _0_ RTR  --- 42 tcp 1540 [0 0 0 0] ------- [0:0 4:0 30 1] [26 0] 0 0
r 1.930907799 _1_ RTR  --- 36 tcp 1540 [13a 1 0 800] ------- [0:0 4:0 30 1] [23 0] 1 0
f 1.930907799 _1_ RTR  --- 36 tcp 1540 [13a 1 0 800] ------- [0:0 4:0 29 5] [23 0] 1 0
r 1.932864273 _1_ RTR  --- 39 ack 40 [13a 1 5 800] ------- [4:0 0:0 29 1] [14 0] 2 0
f 1.932864273 _1_ RTR  --- 39 ack 40 [13a 1 5 800] ------- [4:0 0:0 28 0] [14 0] 2 0
r 1.946730736 _4_ AGT  --- 28 tcp 1540 [13a 4 5 800] ------- [0:0 4:0 28 4] [16 0] 3 0
s 1.946730736 _4_ AGT  --- 43 ack 40 [0 0 0 0] ------- [4:0 0:0 32 0] [16 0] 0 0
r 1.946730736 _4_ RTR  --- 43 ack 40 [0 0 0 0] ------- [4:0 0:0 32 0] [16 0] 0 0
s 1.946730736 _4_ RTR  --- 43 ack 40 [0 0 0 0] ------- [4:0 0:0 30 5] [16 0] 0 0
r 1.960917189 _4_ AGT  --- 29 tcp 1540 [13a 4 5 800] ------- [0:0 4:0 28 4] [17 0] 3 0
s 1.960917189 _4_ AGT  --- 44 ack 40 [0 0 0 0] ------- [4:0 0:0 32 0] [17 0] 0 0
r 1.960917189 _4_ RTR  --- 44 ack 40 [0 0 0 0] ------- [4:0 0:0 32 0] [17 0] 0 0
s 1.960917189 _4_ RTR  --- 44 ack 40 [0 0 0 0] ------- [4:0 0:0 30 5] [17 0] 0 0
r 1.974743642 _4_ AGT  --- 30 tcp 1540 [13a 4 5 800] ------- [0:0 4:0 28 4] [18 0] 3 0
s 1.974743642 _4_ AGT  --- 45 ack 40 [0 0 0 0] ------- [4:0 0:0 32 0] [18 0] 0 0
r 1.974743642 _4_ RTR  --- 45 ack 40 [0 0 0 0] ------- [4:0 0:0 32 0] [18 0] 0 0
s 1.974743642 _4_ RTR  --- 45 ack 40 [0 0 0 0] ------- [4:0 0:0 30 5] [18 0] 0 0