n -t * -s 0  -x 1008 -y 186 -Z 0 -z 25  -v circle -c black
n -t * -s 1  -x 908 -y 205 -Z 0 -z 25  -v circle -c black
n -t * -s 2  -x 124 -y 727 -Z 0 -z 25  -v circle -c black
n -t * -s 3  -x 407 -y 576 -Z 0 -z 25  -v circle -c black
n -t * -s 4  -x 643 -y 468 -Z 0 -z 25  -v circle -c black
n -t * -s 5  -x 755 -y 322 -Z 0 -z 25  -v circle -c black
n -t * -s 6  -x 965 -y 652 -Z 0 -z 25  -v circle -c black
n -t * -s 7  -x 972 -y 341 -Z 0 -z 25  -v circle -c black
n -t * -s 8  -x 725 -y 680 -Z 0 -z 25  -v circle -c black
n -t * -s 9  -x 651 -y 975 -Z 0 -z 25  -v circle -c black
V -t * -v 1.0a5 -a 0
W -t * -x 1000 -y 1000
A -t * -n 1 -p 0 -o 0x7fffffff -c 30 -a 1
A -t * -h 1 -m 1073741823 -s 0
n -t 1.000000 -s 0 -x 1008.000000 -y 186.000000 -U -0.748448 -V 0.663193 -T 1114.305613
n -t 1.000000 -s 1 -x 908.000000 -y 205.000000 -U -4.038317 -V 4.437567 -T 152.786434
n -t 1.000000 -s 2 -x 124.000000 -y 727.000000 -U 8.608161 -V -2.626702 -T 70.049806
n -t 1.000000 -s 3 -x 407.000000 -y 576.000000 -U 5.635391 -V -4.152393 -T 57.316344
n -t 1.000000 -s 4 -x 643.000000 -y 468.000000 -U -6.986157 -V -5.673942 -T 54.107004
n -t 1.000000 -s 5 -x 755.000000 -y 322.000000 -U -0.000000 -V 0.000000 -T 0.000000
n -t 1.000000 -s 6 -x 965.000000 -y 652.000000 -U -3.792940 -V 1.270277 -T 55.893314
n -t 1.000000 -s 7 -x 972.000000 -y 341.000000 -U -0.000000 -V -0.000000 -T 0.000000
n -t 1.000000 -s 8 -x 725.000000 -y 680.000000 -U -3.978096 -V -6.940804 -T 71.893693
n -t 1.000000 -s 9 -x 651.000000 -y 975.000000 -U -1.823215 -V -0.822124 -T 178.805061
+ -t 1.000000000 -s 0 -d -1 -p tcp -e 40 -c 2 -a 0 -i 0 -k AGT 
- -t 1.000000000 -s 0 -d -1 -p tcp -e 40 -c 2 -a 0 -i 0 -k AGT
h -t 1.000000000 -s 0 -d -1 -p tcp -e 40 -c 2 -a 0 -i 0 -k AGT
+ -t 1.000000000 -s 0 -d -1 -p AODV -e 48 -c 2 -a 0 -i 0 -k RTR 
- -t 1.000000000 -s 0 -d -1 -p AODV -e 48 -c 2 -a 0 -i 0 -k RTR
h -t 1.000000000 -s 0 -d -1 -p AODV -e 48 -c 2 -a 0 -i 0 -k RTR
r -t 1.000988339 -s 1 -d -1 -p AODV -e 48 -c 2 -a 0 -i 0 -k RTR
r -t 1.000988530 -s 7 -d -1 -p AODV -e 48 -c 2 -a 0 -i 0 -k RTR
+ -t 1.001869566 -s 1 -d -1 -p AODV -e 48 -c 2 -a 0 -i 0 -k RTR 
- -t 1.001869566 -s 1 -d -1 -p AODV -e 48 -c 2 -a 0 -i 0 -k RTR
h -t 1.001869566 -s 1 -d -1 -p AODV -e 48 -c 2 -a 0 -i 0 -k RTR
r -t 1.002817905 -s 0 -d -1 -p AODV -e 48 -c 2 -a 0 -i 0 -k RTR
r -t 1.002818067 -s 7 -d -1 -p AODV -e 48 -c 2 -a 0 -i 0 -k RTR
r -t 1.002818208 -s 5 -d -1 -p AODV -e 48 -c 2 -a 0 -i 0 -k RTR
+ -t 1.005400264 -s 7 -d -1 -p AODV -e 48 -c 2 -a 0 -i 0 -k RTR 
- -t 1.005400264 -s 7 -d -1 -p AODV -e 48 -c 2 -a 0 -i 0 -k RTR
h -t 1.005400264 -s 7 -d -1 -p AODV -e 48 -c 2 -a 0 -i 0 -k RTR
r -t 1.006588765 -s 1 -d -1 -p AODV -e 48 -c 2 -a 0 -i 0 -k RTR
r -t 1.006588795 -s 0 -d -1 -p AODV -e 48 -c 2 -a 0 -i 0 -k RTR
r -t 1.006588990 -s 5 -d -1 -p AODV -e 48 -c 2 -a 0 -i 0 -k RTR
+ -t 1.010982969 -s 5 -d -1 -p AODV -e 48 -c 2 -a 0 -i 0 -k RTR 
- -t 1.010982969 -s 5 -d -1 -p AODV -e 48 -c 2 -a 0 -i 0 -k RTR
h -t 1.010982969 -s 5 -d -1 -p AODV -e 48 -c 2 -a 0 -i 0 -k RTR
r -t 1.012191582 -s 4 -d -1 -p AODV -e 48 -c 2 -a 0 -i 0 -k RTR
+ -t 1.012191582 -s 4 -d 5 -p AODV -e 44 -c 2 -a 0 -i 0 -k RTR 
- -t 1.012191582 -s 4 -d 5 -p AODV -e 44 -c 2 -a 0 -i 0 -k RTR
h -t 1.012191582 -s 4 -d 5 -p AODV -e 44 -c 2 -a 0 -i 0 -k RTR
r -t 1.012191610 -s 1 -d -1 -p AODV -e 48 -c 2 -a 0 -i 0 -k RTR
r -t 1.012191695 -s 7 -d -1 -p AODV -e 48 -c 2 -a 0 -i 0 -k RTR
+ -t 1.016813875 -s 5 -d 1 -p AODV -e 44 -c 2 -a 0 -i 0 -k RTR 
- -t 1.016813875 -s 5 -d 1 -p AODV -e 44 -c 2 -a 0 -i 0 -k RTR
h -t 1.016813875 -s 5 -d 1 -p AODV -e 44 -c 2 -a 0 -i 0 -k RTR
+ -t 1.022325367 -s 1 -d 0 -p AODV -e 44 -c 2 -a 0 -i 0 -k RTR 
- -t 1.022325367 -s 1 -d 0 -p AODV -e 44 -c 2 -a 0 -i 0 -k RTR
h -t 1.022325367 -s 1 -d 0 -p AODV -e 44 -c 2 -a 0 -i 0 -k RTR
+ -t 1.027534744 -s 0 -d 1 -p tcp -e 40 -c 2 -a 0 -i 0 -k RTR 
- -t 1.027534744 -s 0 -d 1 -p tcp -e 40 -c 2 -a 0 -i 0 -k RTR
h -t 1.027534744 -s 0 -d 1 -p tcp -e 40 -c 2 -a 0 -i 0 -k RTR
+ -t 1.029939763 -s 1 -d 5 -p tcp -e 40 -c 2 -a 0 -i 0 -k RTR 
- -t 1.029939763 -s 1 -d 5 -p tcp -e 40 -c 2 -a 0 -i 0 -k RTR
h -t 1.029939763 -s 1 -d 5 -p tcp -e 40 -c 2 -a 0 -i 0 -k RTR
+ -t 1.032305687 -s 5 -d 4 -p tcp -e 40 -c 2 -a 0 -i 0 -k RTR 
- -t 1.032305687 -s 5 -d 4 -p tcp -e 40 -c 2 -a 0 -i 0 -k RTR
h -t 1.032305687 -s 5 -d 4 -p tcp -e 40 -c 2 -a 0 -i 0 -k RTR
r -t 1.034171528 -s 4 -d 4 -p tcp -e 40 -c 2 -a 0 -i 0 -k AGT
+ -t 1.034171528 -s 4 -d -1 -p ack -e 40 -c 2 -a 0 -i 1 -k AGT 
- -t 1.034171528 -s 4 -d -1 -p ack -e 40 -c 2 -a 0 -i 1 -k AGT
h -t 1.034171528 -s 4 -d -1 -p ack -e 40 -c 2 -a 0 -i 1 -k AGT
+ -t 1.034171528 -s 4 -d 5 -p ack -e 40 -c 2 -a 0 -i 1 -k RTR 
- -t 1.034171528 -s 4 -d 5 -p ack -e 40 -c 2 -a 0 -i 1 -k RTR
h -t 1.034171528 -s 4 -d 5 -p ack -e 40 -c 2 -a 0 -i 1 -k RTR
+ -t 1.036357368 -s 5 -d 1 -p ack -e 40 -c 2 -a 0 -i 1 -k RTR 
- -t 1.036357368 -s 5 -d 1 -p ack -e 40 -c 2 -a 0 -i 1 -k RTR
h -t 1.036357368 -s 5 -d 1 -p ack -e 40 -c 2 -a 0 -i 1 -k RTR
+ -t 1.038263291 -s 1 -d 0 -p ack -e 40 -c 2 -a 0 -i 1 -k RTR 
- -t 1.038263291 -s 1 -d 0 -p ack -e 40 -c 2 -a 0 -i 1 -k RTR
h -t 1.038263291 -s 1 -d 0 -p ack -e 40 -c 2 -a 0 -i 1 -k RTR
r -t 1.040348311 -s 0 -d 0 -p ack -e 40 -c 2 -a 0 -i 1 -k AGT
+ -t 1.040348311 -s 0 -d -1 -p tcp -e 1540 -c 2 -a 0 -i 2 -k AGT 
- -t 1.040348311 -s 0 -d -1 -p tcp -e 1540 -c 2 -a 0 -i 2 -k AGT
h -t 1.040348311 -s 0 -d -1 -p tcp -e 1540 -c 2 -a 0 -i 2 -k AGT
+ -t 1.040348311 -s 0 -d -1 -p tcp -e 1540 -c 2 -a 0 -i 3 -k AGT 
- -t 1.040348311 -s 0 -d -1 -p tcp -e 1540 -c 2 -a 0 -i 3 -k AGT
h -t 1.040348311 -s 0 -d -1 -p tcp -e 1540 -c 2 -a 0 -i 3 -k AGT
+ -t 1.040348311 -s 0 -d 1 -p tcp -e 1540 -c 2 -a 0 -i 2 -k RTR 
- -t 1.040348311 -s 0 -d 1 -p tcp -e 1540 -c 2 -a 0 -i 2 -k RTR
h -t 1.040348311 -s 0 -d 1 -p tcp -e 1540 -c 2 -a 0 -i 2 -k RTR
+ -t 1.040348311 -s 0 -d 1 -p tcp -e 1540 -c 2 -a 0 -i 3 -k RTR 
- -t 1.040348311 -s 0 -d 1 -p tcp -e 1540 -c 2 -a 0 -i 3 -k RTR
h -t 1.040348311 -s 0 -d 1 -p tcp -e 1540 -c 2 -a 0 -i 3 -k RTR
+ -t 1.054273330 -s 1 -d 5 -p tcp -e 1540 -c 2 -a 0 -i 2 -k RTR 
- -t 1.054273330 -s 1 -d 5 -p tcp -e 1540 -c 2 -a 0 -i 2 -k RTR
h -t 1.054273330 -s 1 -d 5 -p tcp -e 1540 -c 2 -a 0 -i 2 -k RTR
+ -t 1.068318690 -s 1 -d 5 -p tcp -e 1540 -c 2 -a 0 -i 3 -k RTR 
- -t 1.068318690 -s 1 -d 5 -p tcp -e 1540 -c 2 -a 0 -i 3 -k RTR
h -t 1.068318690 -s 1 -d 5 -p tcp -e 1540 -c 2 -a 0 -i 3 -k RTR
+ -t 1.082344612 -s 5 -d 4 -p tcp -e 1540 -c 2 -a 0 -i 2 -k RTR 
- -t 1.082344612 -s 5 -d 4 -p tcp -e 1540 -c 2 -a 0 -i 2 -k RTR
h -t 1.082344612 -s 5 -d 4 -p tcp -e 1540 -c 2 -a 0 -i 2 -k RTR
+ -t 1.096231174 -s 5 -d 4 -p tcp -e 1540 -c 2 -a 0 -i 3 -k RTR 
- -t 1.096231174 -s 5 -d 4 -p tcp -e 1540 -c 2 -a 0 -i 3 -k RTR
h -t 1.096231174 -s 5 -d 4 -p tcp -e 1540 -c 2 -a 0 -i 3 -k RTR
r -t 1.110577014 -s 4 -d 4 -p tcp -e 1540 -c 2 -a 0 -i 2 -k AGT
+ -t 1.110577014 -s 4 -d -1 -p ack -e 40 -c 2 -a 0 -i 4 -k AGT 
- -t 1.110577014 -s 4 -d -1 -p ack -e 40 -c 2 -a 0 -i 4 -k AGT
h -t 1.110577014 -s 4 -d -1 -p ack -e 40 -c 2 -a 0 -i 4 -k AGT
+ -t 1.110577014 -s 4 -d 5 -p ack -e 40 -c 2 -a 0 -i 4 -k RTR 
- -t 1.110577014 -s 4 -d 5 -p ack -e 40 -c 2 -a 0 -i 4 -k RTR
h -t 1.110577014 -s 4 -d 5 -p ack -e 40 -c 2 -a 0 -i 4 -k RTR
+ -t 1.112742854 -s 5 -d 1 -p ack -e 40 -c 2 -a 0 -i 4 -k RTR 
- -t 1.112742854 -s 5 -d 1 -p ack -e 40 -c 2 -a 0 -i 4 -k RTR
h -t 1.112742854 -s 5 -d 1 -p ack -e 40 -c 2 -a 0 -i 4 -k RTR
r -t 1.126748694 -s 4 -d 4 -p tcp -e 1540 -c 2 -a 0 -i 3 -k AGT
+ -t 1.126748694 -s 4 -d -1 -p ack -e 40 -c 2 -a 0 -i 5 -k AGT 
- -t 1.126748694 -s 4 -d -1 -p ack -e 40 -c 2 -a 0 -i 5 -k AGT
h -t 1.126748694 -s 4 -d -1 -p ack -e 40 -c 2 -a 0 -i 5 -k AGT
+ -t 1.126748694 -s 4 -d 5 -p ack -e 40 -c 2 -a 0 -i 5 -k RTR 
- -t 1.126748694 -s 4 -d 5 -p ack -e 40 -c 2 -a 0 -i 5 -k RTR
h -t 1.126748694 -s 4 -d 5 -p ack -e 40 -c 2 -a 0 -i 5 -k RTR
+ -t 1.128694533 -s 5 -d 1 -p ack -e 40 -c 2 -a 0 -i 5 -k RTR 
- -t 1.128694533 -s 5 -d 1 -p ack -e 40 -c 2 -a 0 -i 5 -k RTR
h -t 1.128694533 -s 5 -d 1 -p ack -e 40 -c 2 -a 0 -i 5 -k RTR
+ -t 1.130600452 -s 1 -d 0 -p ack -e 40 -c 2 -a 0 -i 4 -k RTR 
- -t 1.130600452 -s 1 -d 0 -p ack -e 40 -c 2 -a 0 -i 4 -k RTR
h -t 1.130600452 -s 1 -d 0 -p ack -e 40 -c 2 -a 0 -i 4 -k RTR
+ -t 1.132427010 -s 1 -d 0 -p ack -e 40 -c 2 -a 0 -i 5 -k RTR 
- -t 1.132427010 -s 1 -d 0 -p ack -e 40 -c 2 -a 0 -i 5 -k RTR
h -t 1.132427010 -s 1 -d 0 -p ack -e 40 -c 2 -a 0 -i 5 -k RTR
r -t 1.134732033 -s 0 -d 0 -p ack -e 40 -c 2 -a 0 -i 4 -k AGT
+ -t 1.134732033 -s 0 -d -1 -p tcp -e 1540 -c 2 -a 0 -i 6 -k AGT 
- -t 1.134732033 -s 0 -d -1 -p tcp -e 1540 -c 2 -a 0 -i 6 -k AGT
h -t 1.134732033 -s 0 -d -1 -p tcp -e 1540 -c 2 -a 0 -i 6 -k AGT
+ -t 1.134732033 -s 0 -d -1 -p tcp -e 1540 -c 2 -a 0 -i 7 -k AGT 
- -t 1.134732033 -s 0 -d -1 -p tcp -e 1540 -c 2 -a 0 -i 7 -k AGT
h -t 1.134732033 -s 0 -d -1 -p tcp -e 1540 -c 2 -a 0 -i 7 -k AGT
+ -t 1.134732033 -s 0 -d 1 -p tcp -e 1540 -c 2 -a 0 -i 6 -k RTR 
- -t 1.134732033 -s 0 -d 1 -p tcp -e 1540 -c 2 -a 0 -i 6 -k RTR
h -t 1.134732033 -s 0 -d 1 -p tcp -e 1540 -c 2 -a 0 -i 6 -k RTR
+ -t 1.134732033 -s 0 -d 1 -p tcp -e 1540 -c 2 -a 0 -i 7 -k RTR 
- -t 1.134732033 -s 0 -d 1 -p tcp -e 1540 -c 2 -a 0 -i 7 -k RTR
h -t 1.134732033 -s 0 -d 1 -p tcp -e 1540 -c 2 -a 0 -i 7 -k RTR
r -t 1.136717397 -s 0 -d 0 -p ack -e 40 -c 2 -a 0 -i 5 -k AGT
+ -t 1.136717397 -s 0 -d -1 -p tcp -e 1540 -c 2 -a 0 -i 8 -k AGT 
- -t 1.136717397 -s 0 -d -1 -p tcp -e 1540 -c 2 -a 0 -i 8 -k AGT
h -t 1.136717397 -s 0 -d -1 -p tcp -e 1540 -c 2 -a 0 -i 8 -k AGT
+ -t 1.136717397 -s 0 -d -1 -p tcp -e 1540 -c 2 -a 0 -i 9 -k AGT 
- -t 1.136717397 -s 0 -d -1 -p tcp -e 1540 -c 2 -a 0 -i 9 -k AGT
h -t 1.136717397 -s 0 -d -1 -p tcp -e 1540 -c 2 -a 0 -i 9 -k AGT
+ -t 1.136717397 -s 0 -d 1 -p tcp -e 1540 -c 2 -a 0 -i 8 -k RTR 
- -t 1.136717397 -s 0 -d 1 -p tcp -e 1540 -c 2 -a 0 -i 8 -k RTR
h -t 1.136717397 -s 0 -d 1 -p tcp -e 1540 -c 2 -a 0 -i 8 -k RTR
+ -t 1.136717397 -s 0 -d 1 -p tcp -e 1540 -c 2 -a 0 -i 9 -k RTR 
- -t 1.136717397 -s 0 -d 1 -p tcp -e 1540 -c 2 -a 0 -i 9 -k RTR
h -t 1.136717397 -s 0 -d 1 -p tcp -e 1540 -c 2 -a 0 -i 9 -k RTR
+ -t 1.150702420 -s 1 -d 5 -p tcp -e 1540 -c 2 -a 0 -i 6 -k RTR 
- -t 1.150702420 -s 1 -d 5 -p tcp -e 1540 -c 2 -a 0 -i 6 -k RTR
h -t 1.150702420 -s 1 -d 5 -p tcp -e 1540 -c 2 -a 0 -i 6 -k RTR
+ -t 1.164588338 -s 5 -d 4 -p tcp -e 1540 -c 2 -a 0 -i 6 -k RTR 
- -t 1.164588338 -s 5 -d 4 -p tcp -e 1540 -c 2 -a 0 -i 6 -k RTR
h -t 1.164588338 -s 5 -d 4 -p tcp -e 1540 -c 2 -a 0 -i 6 -k RTR
r -t 1.178714177 -s 4 -d 4 -p tcp -e 1540 -c 2 -a 0 -i 6 -k AGT
+ -t 1.178714177 -s 4 -d -1 -p ack -e 40 -c 2 -a 0 -i 10 -k AGT 
- -t 1.178714177 -s 4 -d -1 -p ack -e 40 -c 2 -a 0 -i 10 -k AGT
h -t 1.178714177 -s 4 -d -1 -p ack -e 40 -c 2 -a 0 -i 10 -k AGT
+ -t 1.178714177 -s 4 -d 5 -p ack -e 40 -c 2 -a 0 -i 10 -k RTR 
- -t 1.178714177 -s 4 -d 5 -p ack -e 40 -c 2 -a 0 -i 10 -k RTR
h -t 1.178714177 -s 4 -d 5 -p ack -e 40 -c 2 -a 0 -i 10 -k RTR
+ -t 1.180780017 -s 5 -d 1 -p ack -e 40 -c 2 -a 0 -i 10 -k RTR 
- -t 1.180780017 -s 5 -d 1 -p ack -e 40 -c 2 -a 0 -i 10 -k RTR
h -t 1.180780017 -s 5 -d 1 -p ack -e 40 -c 2 -a 0 -i 10 -k RTR
+ -t 1.182685932 -s 1 -d 0 -p ack -e 40 -c 2 -a 0 -i 10 -k RTR 
- -t 1.182685932 -s 1 -d 0 -p ack -e 40 -c 2 -a 0 -i 10 -k RTR
h -t 1.182685932 -s 1 -d 0 -p ack -e 40 -c 2 -a 0 -i 10 -k RTR
r -t 1.184530958 -s 0 -d 0 -p ack -e 40 -c 2 -a 0 -i 10 -k AGT
+ -t 1.184530958 -s 0 -d -1 -p tcp -e 1540 -c 2 -a 0 -i 11 -k AGT 
- -t 1.184530958 -s 0 -d -1 -p tcp -e 1540 -c 2 -a 0 -i 11 -k AGT
h -t 1.184530958 -s 0 -d -1 -p tcp -e 1540 -c 2 -a 0 -i 11 -k AGT
+ -t 1.184530958 -s 0 -d -1 -p tcp -e 1540 -c 2 -a 0 -i 12 -k AGT 
- -t 1.184530958 -s 0 -d -1 -p tcp -e 1540 -c 2 -a 0 -i 12 -k AGT
h -t 1.184530958 -s 0 -d -1 -p tcp -e 1540 -c 2 -a 0 -i 12 -k AGT
+ -t 1.184530958 -s 0 -d 1 -p tcp -e 1540 -c 2 -a 0 -i 11 -k RTR 
- -t 1.184530958 -s 0 -d 1 -p tcp -e 1540 -c 2 -a 0 -i 11 -k RTR
h -t 1.184530958 -s 0 -d 1 -p tcp -e 1540 -c 2 -a 0 -i 11 -k RTR
+ -t 1.184530958 -s 0 -d 1 -p tcp -e 1540 -c 2 -a 0 -i 12 -k RTR 
- -t 1.184530958 -s 0 -d 1 -p tcp -e 1540 -c 2 -a 0 -i 12 -k RTR
h -t 1.184530958 -s 0 -d 1 -p tcp -e 1540 -c 2 -a 0 -i 12 -k RTR
+ -t 1.198375983 -s 1 -d 5 -p tcp -e 1540 -c 2 -a 0 -i 7 -k RTR 
- -t 1.198375983 -s 1 -d 5 -p tcp -e 1540 -c 2 -a 0 -i 7 -k RTR
h -t 1.198375983 -s 1 -d 5 -p tcp -e 1540 -c 2 -a 0 -i 7 -k RTR
+ -t 1.212321350 -s 1 -d 5 -p tcp -e 1540 -c 2 -a 0 -i 8 -k RTR 
- -t 1.212321350 -s 1 -d 5 -p tcp -e 1540 -c 2 -a 0 -i 8 -k RTR
h -t 1.212321350 -s 1 -d 5 -p tcp -e 1540 -c 2 -a 0 -i 8 -k RTR
+ -t 1.226247264 -s 5 -d 4 -p tcp -e 1540 -c 2 -a 0 -i 7 -k RTR 
- -t 1.226247264 -s 5 -d 4 -p tcp -e 1540 -c 2 -a 0 -i 7 -k RTR
h -t 1.226247264 -s 5 -d 4 -p tcp -e 1540 -c 2 -a 0 -i 7 -k RTR
+ -t 1.240113814 -s 5 -d 4 -p tcp -e 1540 -c 2 -a 0 -i 8 -k RTR 
- -t 1.240113814 -s 5 -d 4 -p tcp -e 1540 -c 2 -a 0 -i 8 -k RTR
h -t 1.240113814 -s 5 -d 4 -p tcp -e 1540 -c 2 -a 0 -i 8 -k RTR
r -t 1.254279654 -s 4 -d 4 -p tcp -e 1540 -c 2 -a 0 -i 7 -k AGT
+ -t 1.254279654 -s 4 -d -1 -p ack -e 40 -c 2 -a 0 -i 13 -k AGT 
- -t 1.254279654 -s 4 -d -1 -p ack -e 40 -c 2 -a 0 -i 13 -k AGT
h -t 1.254279654 -s 4 -d -1 -p ack -e 40 -c 2 -a 0 -i 13 -k AGT
+ -t 1.254279654 -s 4 -d 5 -p ack -e 40 -c 2 -a 0 -i 13 -k RTR 
- -t 1.254279654 -s 4 -d 5 -p ack -e 40 -c 2 -a 0 -i 13 -k RTR
h -t 1.254279654 -s 4 -d 5 -p ack -e 40 -c 2 -a 0 -i 13 -k RTR
+ -t 1.256225493 -s 5 -d 1 -p ack -e 40 -c 2 -a 0 -i 13 -k RTR 
- -t 1.256225493 -s 5 -d 1 -p ack -e 40 -c 2 -a 0 -i 13 -k RTR
h -t 1.256225493 -s 5 -d 1 -p ack -e 40 -c 2 -a 0 -i 13 -k RTR
r -t 1.270151333 -s 4 -d 4 -p tcp -e 1540 -c 2 -a 0 -i 8 -k AGT
+ -t 1.270151333 -s 4 -d -1 -p ack -e 40 -c 2 -a 0 -i 14 -k AGT 
- -t 1.270151333 -s 4 -d -1 -p ack -e 40 -c 2 -a 0 -i 14 -k AGT
h -t 1.270151333 -s 4 -d -1 -p ack -e 40 -c 2 -a 0 -i 14 -k AGT
+ -t 1.270151333 -s 4 -d 5 -p ack -e 40 -c 2 -a 0 -i 14 -k RTR 
- -t 1.270151333 -s 4 -d 5 -p ack -e 40 -c 2 -a 0 -i 14 -k RTR
h -t 1.270151333 -s 4 -d 5 -p ack -e 40 -c 2 -a 0 -i 14 -k RTR
+ -t 1.271997173 -s 5 -d 1 -p ack -e 40 -c 2 -a 0 -i 14 -k RTR 
- -t 1.271997173 -s 5 -d 1 -p ack -e 40 -c 2 -a 0 -i 14 -k RTR
h -t 1.271997173 -s 5 -d 1 -p ack -e 40 -c 2 -a 0 -i 14 -k RTR
+ -t 1.273903083 -s 1 -d 0 -p ack -e 40 -c 2 -a 0 -i 13 -k RTR 
- -t 1.273903083 -s 1 -d 0 -p ack -e 40 -c 2 -a 0 -i 13 -k RTR
h -t 1.273903083 -s 1 -d 0 -p ack -e 40 -c 2 -a 0 -i 13 -k RTR
r -t 1.275808111 -s 0 -d 0 -p ack -e 40 -c 2 -a 0 -i 13 -k AGT
+ -t 1.275808111 -s 0 -d -1 -p tcp -e 1540 -c 2 -a 0 -i 15 -k AGT 
- -t 1.275808111 -s 0 -d -1 -p tcp -e 1540 -c 2 -a 0 -i 15 -k AGT
h -t 1.275808111 -s 0 -d -1 -p tcp -e 1540 -c 2 -a 0 -i 15 -k AGT
+ -t 1.275808111 -s 0 -d -1 -p tcp -e 1540 -c 2 -a 0 -i 16 -k AGT 
- -t 1.275808111 -s 0 -d -1 -p tcp -e 1540 -c 2 -a 0 -i 16 -k AGT
h -t 1.275808111 -s 0 -d -1 -p tcp -e 1540 -c 2 -a 0 -i 16 -k AGT
+ -t 1.275808111 -s 0 -d 1 -p tcp -e 1540 -c 2 -a 0 -i 15 -k RTR 
- -t 1.275808111 -s 0 -d 1 -p tcp -e 1540 -c 2 -a 0 -i 15 -k RTR
h -t 1.275808111 -s 0 -d 1 -p tcp -e 1540 -c 2 -a 0 -i 15 -k RTR
+ -t 1.275808111 -s 0 -d 1 -p tcp -e 1540 -c 2 -a 0 -i 16 -k RTR 
- -t 1.275808111 -s 0 -d 1 -p tcp -e 1540 -c 2 -a 0 -i 16 -k RTR
h -t 1.275808111 -s 0 -d 1 -p tcp -e 1540 -c 2 -a 0 -i 16 -k RTR
+ -t 1.289813140 -s 1 -d 5 -p tcp -e 1540 -c 2 -a 0 -i 9 -k RTR 
- -t 1.289813140 -s 1 -d 5 -p tcp -e 1540 -c 2 -a 0 -i 9 -k RTR
h -t 1.289813140 -s 1 -d 5 -p tcp -e 1540 -c 2 -a 0 -i 9 -k RTR
+ -t 1.291829663 -s 1 -d 0 -p ack -e 40 -c 2 -a 0 -i 14 -k RTR 
- -t 1.291829663 -s 1 -d 0 -p ack -e 40 -c 2 -a 0 -i 14 -k RTR
h -t 1.291829663 -s 1 -d 0 -p ack -e 40 -c 2 -a 0 -i 14 -k RTR
+ -t 1.305815572 -s 5 -d 4 -p tcp -e 1540 -c 2 -a 0 -i 9 -k RTR 
- -t 1.305815572 -s 5 -d 4 -p tcp -e 1540 -c 2 -a 0 -i 9 -k RTR
h -t 1.305815572 -s 5 -d 4 -p tcp -e 1540 -c 2 -a 0 -i 9 -k RTR
r -t 1.319701411 -s 4 -d 4 -p tcp -e 1540 -c 2 -a 0 -i 9 -k AGT
+ -t 1.319701411 -s 4 -d -1 -p ack -e 40 -c 2 -a 0 -i 17 -k AGT 
- -t 1.319701411 -s 4 -d -1 -p ack -e 40 -c 2 -a 0 -i 17 -k AGT
h -t 1.319701411 -s 4 -d -1 -p ack -e 40 -c 2 -a 0 -i 17 -k AGT
+ -t 1.319701411 -s 4 -d 5 -p ack -e 40 -c 2 -a 0 -i 17 -k RTR 
- -t 1.319701411 -s 4 -d 5 -p ack -e 40 -c 2 -a 0 -i 17 -k RTR
h -t 1.319701411 -s 4 -d 5 -p ack -e 40 -c 2 -a 0 -i 17 -k RTR
+ -t 1.321727251 -s 5 -d 1 -p ack -e 40 -c 2 -a 0 -i 17 -k RTR 
- -t 1.321727251 -s 5 -d 1 -p ack -e 40 -c 2 -a 0 -i 17 -k RTR
h -t 1.321727251 -s 5 -d 1 -p ack -e 40 -c 2 -a 0 -i 17 -k RTR
r -t 1.324142907 -s 0 -d 0 -p ack -e 40 -c 2 -a 0 -i 14 -k AGT
+ -t 1.324142907 -s 0 -d -1 -p tcp -e 1540 -c 2 -a 0 -i 18 -k AGT 
- -t 1.324142907 -s 0 -d -1 -p tcp -e 1540 -c 2 -a 0 -i 18 -k AGT
h -t 1.324142907 -s 0 -d -1 -p tcp -e 1540 -c 2 -a 0 -i 18 -k AGT
+ -t 1.324142907 -s 0 -d -1 -p tcp -e 1540 -c 2 -a 0 -i 19 -k AGT 
- -t 1.324142907 -s 0 -d -1 -p tcp -e 1540 -c 2 -a 0 -i 19 -k AGT
h -t 1.324142907 -s 0 -d -1 -p tcp -e 1540 -c 2 -a 0 -i 19 -k AGT
+ -t 1.324142907 -s 0 -d 1 -p tcp -e 1540 -c 2 -a 0 -i 18 -k RTR 
- -t 1.324142907 -s 0 -d 1 -p tcp -e 1540 -c 2 -a 0 -i 18 -k RTR
h -t 1.324142907 -s 0 -d 1 -p tcp -e 1540 -c 2 -a 0 -i 18 -k RTR
+ -t 1.324142907 -s 0 -d 1 -p tcp -e 1540 -c 2 -a 0 -i 19 -k RTR 
- -t 1.324142907 -s 0 -d 1 -p tcp -e 1540 -c 2 -a 0 -i 19 -k RTR
h -t 1.324142907 -s 0 -d 1 -p tcp -e 1540 -c 2 -a 0 -i 19 -k RTR
+ -t 1.338067938 -s 1 -d 5 -p tcp -e 1540 -c 2 -a 0 -i 11 -k RTR 
- -t 1.338067938 -s 1 -d 5 -p tcp -e 1540 -c 2 -a 0 -i 11 -k RTR
h -t 1.338067938 -s 1 -d 5 -p tcp -e 1540 -c 2 -a 0 -i 11 -k RTR
+ -t 1.339964457 -s 1 -d 0 -p ack -e 40 -c 2 -a 0 -i 17 -k RTR 
- -t 1.339964457 -s 1 -d 0 -p ack -e 40 -c 2 -a 0 -i 17 -k RTR
h -t 1.339964457 -s 1 -d 0 -p ack -e 40 -c 2 -a 0 -i 17 -k RTR
+ -t 1.354079809 -s 1 -d 5 -p tcp -e 1540 -c 2 -a 0 -i 12 -k RTR 
- -t 1.354079809 -s 1 -d 5 -p tcp -e 1540 -c 2 -a 0 -i 12 -k RTR
h -t 1.354079809 -s 1 -d 5 -p tcp -e 1540 -c 2 -a 0 -i 12 -k RTR
+ -t 1.368005714 -s 5 -d 4 -p tcp -e 1540 -c 2 -a 0 -i 11 -k RTR 
- -t 1.368005714 -s 5 -d 4 -p tcp -e 1540 -c 2 -a 0 -i 11 -k RTR
h -t 1.368005714 -s 5 -d 4 -p tcp -e 1540 -c 2 -a 0 -i 11 -k RTR
r -t 1.369871382 -s 0 -d 0 -p ack -e 40 -c 2 -a 0 -i 17 -k AGT
+ -t 1.369871382 -s 0 -d -1 -p tcp -e 1540 -c 2 -a 0 -i 20 -k AGT 
- -t 1.369871382 -s 0 -d -1 -p tcp -e 1540 -c 2 -a 0 -i 20 -k AGT
h -t 1.369871382 -s 0 -d -1 -p tcp -e 1540 -c 2 -a 0 -i 20 -k AGT
+ -t 1.369871382 -s 0 -d -1 -p tcp -e 1540 -c 2 -a 0 -i 21 -k AGT 
- -t 1.369871382 -s 0 -d -1 -p tcp -e 1540 -c 2 -a 0 -i 21 -k AGT
h -t 1.369871382 -s 0 -d -1 -p tcp -e 1540 -c 2 -a 0 -i 21 -k AGT
+ -t 1.369871382 -s 0 -d 1 -p tcp -e 1540 -c 2 -a 0 -i 20 -k RTR 
- -t 1.369871382 -s 0 -d 1 -p tcp -e 1540 -c 2 -a 0 -i 20 -k RTR
h -t 1.369871382 -s 0 -d 1 -p tcp -e 1540 -c 2 -a 0 -i 20 -k RTR
+ -t 1.369871382 -s 0 -d 1 -p tcp -e 1540 -c 2 -a 0 -i 21 -k RTR 
- -t 1.369871382 -s 0 -d 1 -p tcp -e 1540 -c 2 -a 0 -i 21 -k RTR
h -t 1.369871382 -s 0 -d 1 -p tcp -e 1540 -c 2 -a 0 -i 21 -k RTR
+ -t 1.383896414 -s 1 -d 5 -p tcp -e 1540 -c 2 -a 0 -i 15 -k RTR 
- -t 1.383896414 -s 1 -d 5 -p tcp -e 1540 -c 2 -a 0 -i 15 -k RTR
h -t 1.383896414 -s 1 -d 5 -p tcp -e 1540 -c 2 -a 0 -i 15 -k RTR
+ -t 1.397941792 -s 1 -d 5 -p tcp -e 1540 -c 2 -a 0 -i 16 -k RTR 
- -t 1.397941792 -s 1 -d 5 -p tcp -e 1540 -c 2 -a 0 -i 16 -k RTR
h -t 1.397941792 -s 1 -d 5 -p tcp -e 1540 -c 2 -a 0 -i 16 -k RTR
+ -t 1.411927694 -s 5 -d 4 -p tcp -e 1540 -c 2 -a 0 -i 12 -k RTR 
- -t 1.411927694 -s 5 -d 4 -p tcp -e 1540 -c 2 -a 0 -i 12 -k RTR
h -t 1.411927694 -s 5 -d 4 -p tcp -e 1540 -c 2 -a 0 -i 12 -k RTR
r -t 1.425793534 -s 4 -d 4 -p tcp -e 1540 -c 2 -a 0 -i 11 -k AGT
+ -t 1.425793534 -s 4 -d -1 -p ack -e 40 -c 2 -a 0 -i 22 -k AGT 
- -t 1.425793534 -s 4 -d -1 -p ack -e 40 -c 2 -a 0 -i 22 -k AGT
h -t 1.425793534 -s 4 -d -1 -p ack -e 40 -c 2 -a 0 -i 22 -k AGT
+ -t 1.425793534 -s 4 -d 5 -p ack -e 40 -c 2 -a 0 -i 22 -k RTR 
- -t 1.425793534 -s 4 -d 5 -p ack -e 40 -c 2 -a 0 -i 22 -k RTR
h -t 1.425793534 -s 4 -d 5 -p ack -e 40 -c 2 -a 0 -i 22 -k RTR
+ -t 1.440004108 -s 1 -d 5 -p tcp -e 1540 -c 2 -a 0 -i 18 -k RTR 
- -t 1.440004108 -s 1 -d 5 -p tcp -e 1540 -c 2 -a 0 -i 18 -k RTR
h -t 1.440004108 -s 1 -d 5 -p tcp -e 1540 -c 2 -a 0 -i 18 -k RTR
r -t 1.453900558 -s 4 -d 4 -p tcp -e 1540 -c 2 -a 0 -i 12 -k AGT
+ -t 1.453900558 -s 4 -d -1 -p ack -e 40 -c 2 -a 0 -i 23 -k AGT 
- -t 1.453900558 -s 4 -d -1 -p ack -e 40 -c 2 -a 0 -i 23 -k AGT
h -t 1.453900558 -s 4 -d -1 -p ack -e 40 -c 2 -a 0 -i 23 -k AGT
+ -t 1.453900558 -s 4 -d 5 -p ack -e 40 -c 2 -a 0 -i 23 -k RTR 
- -t 1.453900558 -s 4 -d 5 -p ack -e 40 -c 2 -a 0 -i 23 -k RTR
h -t 1.453900558 -s 4 -d 5 -p ack -e 40 -c 2 -a 0 -i 23 -k RTR
+ -t 1.455786398 -s 5 -d 1 -p ack -e 40 -c 2 -a 0 -i 22 -k RTR 
- -t 1.455786398 -s 5 -d 1 -p ack -e 40 -c 2 -a 0 -i 22 -k RTR
h -t 1.455786398 -s 5 -d 1 -p ack -e 40 -c 2 -a 0 -i 22 -k RTR
+ -t 1.469722920 -s 5 -d 4 -p tcp -e 1540 -c 2 -a 0 -i 15 -k RTR 
- -t 1.469722920 -s 5 -d 4 -p tcp -e 1540 -c 2 -a 0 -i 15 -k RTR
h -t 1.469722920 -s 5 -d 4 -p tcp -e 1540 -c 2 -a 0 -i 15 -k RTR
+ -t 1.483549452 -s 5 -d 4 -p tcp -e 1540 -c 2 -a 0 -i 16 -k RTR 
- -t 1.483549452 -s 5 -d 4 -p tcp -e 1540 -c 2 -a 0 -i 16 -k RTR
h -t 1.483549452 -s 5 -d 4 -p tcp -e 1540 -c 2 -a 0 -i 16 -k RTR
+ -t 1.485395349 -s 1 -d 0 -p ack -e 40 -c 2 -a 0 -i 22 -k RTR 
- -t 1.485395349 -s 1 -d 0 -p ack -e 40 -c 2 -a 0 -i 22 -k RTR
h -t 1.485395349 -s 1 -d 0 -p ack -e 40 -c 2 -a 0 -i 22 -k RTR
+ -t 1.499330710 -s 1 -d 5 -p tcp -e 1540 -c 2 -a 0 -i 19 -k RTR 
- -t 1.499330710 -s 1 -d 5 -p tcp -e 1540 -c 2 -a 0 -i 19 -k RTR
h -t 1.499330710 -s 1 -d 5 -p tcp -e 1540 -c 2 -a 0 -i 19 -k RTR
+ -t 1.513196606 -s 5 -d 4 -p tcp -e 1540 -c 2 -a 0 -i 18 -k RTR 
- -t 1.513196606 -s 5 -d 4 -p tcp -e 1540 -c 2 -a 0 -i 18 -k RTR
h -t 1.513196606 -s 5 -d 4 -p tcp -e 1540 -c 2 -a 0 -i 18 -k RTR
+ -t 1.515193050 -s 5 -d 1 -p ack -e 40 -c 2 -a 0 -i 23 -k RTR 
- -t 1.515193050 -s 5 -d 1 -p ack -e 40 -c 2 -a 0 -i 23 -k RTR
h -t 1.515193050 -s 5 -d 1 -p ack -e 40 -c 2 -a 0 -i 23 -k RTR
r -t 1.529118889 -s 4 -d 4 -p tcp -e 1540 -c 2 -a 0 -i 15 -k AGT
+ -t 1.529118889 -s 4 -d -1 -p ack -e 40 -c 2 -a 0 -i 24 -k AGT 
- -t 1.529118889 -s 4 -d -1 -p ack -e 40 -c 2 -a 0 -i 24 -k AGT
h -t 1.529118889 -s 4 -d -1 -p ack -e 40 -c 2 -a 0 -i 24 -k AGT
+ -t 1.529118889 -s 4 -d 5 -p ack -e 40 -c 2 -a 0 -i 24 -k RTR 
- -t 1.529118889 -s 4 -d 5 -p ack -e 40 -c 2 -a 0 -i 24 -k RTR
h -t 1.529118889 -s 4 -d 5 -p ack -e 40 -c 2 -a 0 -i 24 -k RTR
r -t 1.543265342 -s 4 -d 4 -p tcp -e 1540 -c 2 -a 0 -i 16 -k AGT
+ -t 1.543265342 -s 4 -d -1 -p ack -e 40 -c 2 -a 0 -i 25 -k AGT 
- -t 1.543265342 -s 4 -d -1 -p ack -e 40 -c 2 -a 0 -i 25 -k AGT
h -t 1.543265342 -s 4 -d -1 -p ack -e 40 -c 2 -a 0 -i 25 -k AGT
+ -t 1.543265342 -s 4 -d 5 -p ack -e 40 -c 2 -a 0 -i 25 -k RTR 
- -t 1.543265342 -s 4 -d 5 -p ack -e 40 -c 2 -a 0 -i 25 -k RTR
h -t 1.543265342 -s 4 -d 5 -p ack -e 40 -c 2 -a 0 -i 25 -k RTR
+ -t 1.545191181 -s 5 -d 1 -p ack -e 40 -c 2 -a 0 -i 24 -k RTR 
- -t 1.545191181 -s 5 -d 1 -p ack -e 40 -c 2 -a 0 -i 24 -k RTR
h -t 1.545191181 -s 5 -d 1 -p ack -e 40 -c 2 -a 0 -i 24 -k RTR
+ -t 1.547037634 -s 5 -d 1 -p ack -e 40 -c 2 -a 0 -i 25 -k RTR 
- -t 1.547037634 -s 5 -d 1 -p ack -e 40 -c 2 -a 0 -i 25 -k RTR
h -t 1.547037634 -s 5 -d 1 -p ack -e 40 -c 2 -a 0 -i 25 -k RTR
r -t 1.560923473 -s 4 -d 4 -p tcp -e 1540 -c 2 -a 0 -i 18 -k AGT
+ -t 1.560923473 -s 4 -d -1 -p ack -e 40 -c 2 -a 0 -i 26 -k AGT 
- -t 1.560923473 -s 4 -d -1 -p ack -e 40 -c 2 -a 0 -i 26 -k AGT
h -t 1.560923473 -s 4 -d -1 -p ack -e 40 -c 2 -a 0 -i 26 -k AGT
+ -t 1.560923473 -s 4 -d 5 -p ack -e 40 -c 2 -a 0 -i 26 -k RTR 
- -t 1.560923473 -s 4 -d 5 -p ack -e 40 -c 2 -a 0 -i 26 -k RTR
h -t 1.560923473 -s 4 -d 5 -p ack -e 40 -c 2 -a 0 -i 26 -k RTR
+ -t 1.562849979 -s 1 -d 0 -p ack -e 40 -c 2 -a 0 -i 23 -k RTR 
- -t 1.562849979 -s 1 -d 0 -p ack -e 40 -c 2 -a 0 -i 23 -k RTR
h -t 1.562849979 -s 1 -d 0 -p ack -e 40 -c 2 -a 0 -i 23 -k RTR
+ -t 1.564676503 -s 1 -d 0 -p ack -e 40 -c 2 -a 0 -i 24 -k RTR 
- -t 1.564676503 -s 1 -d 0 -p ack -e 40 -c 2 -a 0 -i 24 -k RTR
h -t 1.564676503 -s 1 -d 0 -p ack -e 40 -c 2 -a 0 -i 24 -k RTR
+ -t 1.566563026 -s 1 -d 0 -p ack -e 40 -c 2 -a 0 -i 25 -k RTR 
- -t 1.566563026 -s 1 -d 0 -p ack -e 40 -c 2 -a 0 -i 25 -k RTR
h -t 1.566563026 -s 1 -d 0 -p ack -e 40 -c 2 -a 0 -i 25 -k RTR
r -t 1.568548067 -s 0 -d 0 -p ack -e 40 -c 2 -a 0 -i 22 -k AGT
+ -t 1.568548067 -s 0 -d -1 -p tcp -e 1540 -c 2 -a 0 -i 27 -k AGT 
- -t 1.568548067 -s 0 -d -1 -p tcp -e 1540 -c 2 -a 0 -i 27 -k AGT
h -t 1.568548067 -s 0 -d -1 -p tcp -e 1540 -c 2 -a 0 -i 27 -k AGT
+ -t 1.568548067 -s 0 -d -1 -p tcp -e 1540 -c 2 -a 0 -i 28 -k AGT 
- -t 1.568548067 -s 0 -d -1 -p tcp -e 1540 -c 2 -a 0 -i 28 -k AGT
h -t 1.568548067 -s 0 -d -1 -p tcp -e 1540 -c 2 -a 0 -i 28 -k AGT
+ -t 1.568548067 -s 0 -d 1 -p tcp -e 1540 -c 2 -a 0 -i 27 -k RTR 
- -t 1.568548067 -s 0 -d 1 -p tcp -e 1540 -c 2 -a 0 -i 27 -k RTR
h -t 1.568548067 -s 0 -d 1 -p tcp -e 1540 -c 2 -a 0 -i 27 -k RTR
+ -t 1.568548067 -s 0 -d 1 -p tcp -e 1540 -c 2 -a 0 -i 28 -k RTR 
- -t 1.568548067 -s 0 -d 1 -p tcp -e 1540 -c 2 -a 0 -i 28 -k RTR
h -t 1.568548067 -s 0 -d 1 -p tcp -e 1540 -c 2 -a 0 -i 28 -k RTR
+ -t 1.582553107 -s 1 -d 5 -p tcp -e 1540 -c 2 -a 0 -i 20 -k RTR 
- -t 1.582553107 -s 1 -d 5 -p tcp -e 1540 -c 2 -a 0 -i 20 -k RTR
h -t 1.582553107 -s 1 -d 5 -p tcp -e 1540 -c 2 -a 0 -i 20 -k RTR
+ -t 1.585646833 -s 5 -d 1 -p ack -e 40 -c 2 -a 0 -i 26 -k RTR 
- -t 1.585646833 -s 5 -d 1 -p ack -e 40 -c 2 -a 0 -i 26 -k RTR
h -t 1.585646833 -s 5 -d 1 -p ack -e 40 -c 2 -a 0 -i 26 -k RTR
+ -t 1.587532725 -s 1 -d 0 -p ack -e 40 -c 2 -a 0 -i 26 -k RTR 
- -t 1.587532725 -s 1 -d 0 -p ack -e 40 -c 2 -a 0 -i 26 -k RTR
h -t 1.587532725 -s 1 -d 0 -p ack -e 40 -c 2 -a 0 -i 26 -k RTR
+ -t 1.601888091 -s 1 -d 5 -p tcp -e 1540 -c 2 -a 0 -i 21 -k RTR 
- -t 1.601888091 -s 1 -d 5 -p tcp -e 1540 -c 2 -a 0 -i 21 -k RTR
h -t 1.601888091 -s 1 -d 5 -p tcp -e 1540 -c 2 -a 0 -i 21 -k RTR
+ -t 1.615733480 -s 1 -d 5 -p tcp -e 1540 -c 2 -a 0 -i 27 -k RTR 
- -t 1.615733480 -s 1 -d 5 -p tcp -e 1540 -c 2 -a 0 -i 27 -k RTR
h -t 1.615733480 -s 1 -d 5 -p tcp -e 1540 -c 2 -a 0 -i 27 -k RTR
+ -t 1.629579370 -s 5 -d 4 -p tcp -e 1540 -c 2 -a 0 -i 19 -k RTR 
- -t 1.629579370 -s 5 -d 4 -p tcp -e 1540 -c 2 -a 0 -i 19 -k RTR
h -t 1.629579370 -s 5 -d 4 -p tcp -e 1540 -c 2 -a 0 -i 19 -k RTR
r -t 1.631785042 -s 0 -d 0 -p ack -e 40 -c 2 -a 0 -i 23 -k AGT
+ -t 1.631785042 -s 0 -d -1 -p tcp -e 1540 -c 2 -a 0 -i 29 -k AGT 
- -t 1.631785042 -s 0 -d -1 -p tcp -e 1540 -c 2 -a 0 -i 29 -k AGT
h -t 1.631785042 -s 0 -d -1 -p tcp -e 1540 -c 2 -a 0 -i 29 -k AGT
+ -t 1.631785042 -s 0 -d -1 -p tcp -e 1540 -c 2 -a 0 -i 30 -k AGT 
- -t 1.631785042 -s 0 -d -1 -p tcp -e 1540 -c 2 -a 0 -i 30 -k AGT
h -t 1.631785042 -s 0 -d -1 -p tcp -e 1540 -c 2 -a 0 -i 30 -k AGT
+ -t 1.631785042 -s 0 -d 1 -p tcp -e 1540 -c 2 -a 0 -i 29 -k RTR 
- -t 1.631785042 -s 0 -d 1 -p tcp -e 1540 -c 2 -a 0 -i 29 -k RTR
h -t 1.631785042 -s 0 -d 1 -p tcp -e 1540 -c 2 -a 0 -i 29 -k RTR
+ -t 1.631785042 -s 0 -d 1 -p tcp -e 1540 -c 2 -a 0 -i 30 -k RTR 
- -t 1.631785042 -s 0 -d 1 -p tcp -e 1540 -c 2 -a 0 -i 30 -k RTR
h -t 1.631785042 -s 0 -d 1 -p tcp -e 1540 -c 2 -a 0 -i 30 -k RTR
+ -t 1.645970085 -s 1 -d 5 -p tcp -e 1540 -c 2 -a 0 -i 28 -k RTR 
- -t 1.645970085 -s 1 -d 5 -p tcp -e 1540 -c 2 -a 0 -i 28 -k RTR
h -t 1.645970085 -s 1 -d 5 -p tcp -e 1540 -c 2 -a 0 -i 28 -k RTR
r -t 1.659906532 -s 4 -d 4 -p tcp -e 1540 -c 2 -a 0 -i 19 -k AGT
+ -t 1.659906532 -s 4 -d -1 -p ack -e 40 -c 2 -a 0 -i 31 -k AGT 
- -t 1.659906532 -s 4 -d -1 -p ack -e 40 -c 2 -a 0 -i 31 -k AGT
h -t 1.659906532 -s 4 -d -1 -p ack -e 40 -c 2 -a 0 -i 31 -k AGT
+ -t 1.659906532 -s 4 -d 5 -p ack -e 40 -c 2 -a 0 -i 31 -k RTR 
- -t 1.659906532 -s 4 -d 5 -p ack -e 40 -c 2 -a 0 -i 31 -k RTR
h -t 1.659906532 -s 4 -d 5 -p ack -e 40 -c 2 -a 0 -i 31 -k RTR
+ -t 1.661912372 -s 5 -d 1 -p ack -e 40 -c 2 -a 0 -i 31 -k RTR 
- -t 1.661912372 -s 5 -d 1 -p ack -e 40 -c 2 -a 0 -i 31 -k RTR
h -t 1.661912372 -s 5 -d 1 -p ack -e 40 -c 2 -a 0 -i 31 -k RTR
r -t 1.663808037 -s 0 -d 0 -p ack -e 40 -c 2 -a 0 -i 24 -k AGT
+ -t 1.663808037 -s 0 -d -1 -p tcp -e 1540 -c 2 -a 0 -i 32 -k AGT 
- -t 1.663808037 -s 0 -d -1 -p tcp -e 1540 -c 2 -a 0 -i 32 -k AGT
h -t 1.663808037 -s 0 -d -1 -p tcp -e 1540 -c 2 -a 0 -i 32 -k AGT
+ -t 1.663808037 -s 0 -d -1 -p tcp -e 1540 -c 2 -a 0 -i 33 -k AGT 
- -t 1.663808037 -s 0 -d -1 -p tcp -e 1540 -c 2 -a 0 -i 33 -k AGT
h -t 1.663808037 -s 0 -d -1 -p tcp -e 1540 -c 2 -a 0 -i 33 -k AGT
+ -t 1.663808037 -s 0 -d 1 -p tcp -e 1540 -c 2 -a 0 -i 32 -k RTR 
- -t 1.663808037 -s 0 -d 1 -p tcp -e 1540 -c 2 -a 0 -i 32 -k RTR
h -t 1.663808037 -s 0 -d 1 -p tcp -e 1540 -c 2 -a 0 -i 32 -k RTR
+ -t 1.663808037 -s 0 -d 1 -p tcp -e 1540 -c 2 -a 0 -i 33 -k RTR 
- -t 1.663808037 -s 0 -d 1 -p tcp -e 1540 -c 2 -a 0 -i 33 -k RTR
h -t 1.663808037 -s 0 -d 1 -p tcp -e 1540 -c 2 -a 0 -i 33 -k RTR
r -t 1.665773429 -s 0 -d 0 -p ack -e 40 -c 2 -a 0 -i 25 -k AGT
+ -t 1.665773429 -s 0 -d -1 -p tcp -e 1540 -c 2 -a 0 -i 34 -k AGT 
- -t 1.665773429 -s 0 -d -1 -p tcp -e 1540 -c 2 -a 0 -i 34 -k AGT
h -t 1.665773429 -s 0 -d -1 -p tcp -e 1540 -c 2 -a 0 -i 34 -k AGT
+ -t 1.665773429 -s 0 -d -1 -p tcp -e 1540 -c 2 -a 0 -i 35 -k AGT 
- -t 1.665773429 -s 0 -d -1 -p tcp -e 1540 -c 2 -a 0 -i 35 -k AGT
h -t 1.665773429 -s 0 -d -1 -p tcp -e 1540 -c 2 -a 0 -i 35 -k AGT
+ -t 1.665773429 -s 0 -d 1 -p tcp -e 1540 -c 2 -a 0 -i 34 -k RTR 
- -t 1.665773429 -s 0 -d 1 -p tcp -e 1540 -c 2 -a 0 -i 34 -k RTR
h -t 1.665773429 -s 0 -d 1 -p tcp -e 1540 -c 2 -a 0 -i 34 -k RTR
+ -t 1.665773429 -s 0 -d 1 -p tcp -e 1540 -c 2 -a 0 -i 35 -k RTR 
- -t 1.665773429 -s 0 -d 1 -p tcp -e 1540 -c 2 -a 0 -i 35 -k RTR
h -t 1.665773429 -s 0 -d 1 -p tcp -e 1540 -c 2 -a 0 -i 35 -k RTR
+ -t 1.679678473 -s 1 -d 5 -p tcp -e 1540 -c 2 -a 0 -i 29 -k RTR 
- -t 1.679678473 -s 1 -d 5 -p tcp -e 1540 -c 2 -a 0 -i 29 -k RTR
h -t 1.679678473 -s 1 -d 5 -p tcp -e 1540 -c 2 -a 0 -i 29 -k RTR
+ -t 1.693503866 -s 1 -d 5 -p tcp -e 1540 -c 2 -a 0 -i 30 -k RTR 