r 1.040348311 _0_ AGT  --- 1 ack 40 [13a 0 1 800] ------- [4:0 0:0 28 0] [0 0] 3 0
s 1.040348311 _0_ AGT  --- 2 tcp 1540 [0 0 0 0] ------- [0:0 4:0 32 0] [1 0] 0 0
r 1.040348311 _0_ RTR  --- 2 tcp 1540 [0 0 0 0] ------- [0:0 4:0 32 0] [1 0] 0 0
s 1.040348311 _0_ AGT  --- 3 tcp 1540 [0 0 0 0] ------- [0:0 4:0 32 0] [2 0] 0 0
r 1.040348311 _0_ RTR  --- 3 tcp 1540 [0 0 0 0] ------- [0:0 4:0 32 0] [2 0] 0 0
s 1.040348311 _0_ RTR  --- 2 tcp 1540 [0 0 0 0] ------- [0:0 4:0 30 1] [1 0] 0 0
s 1.040348311 _0_ RTR  --- 3 tcp 1540 [0 0 0 0] ------- [0:0 4:0 30 1] [2 0] 0 0
r 1.054273330 _1_ RTR  --- 2 tcp 1540 [13a 1 0 800] ------- [0:0 4:0 30 1] [1 0] 1 0
f 1.054273330 _1_ RTR  --- 2 tcp 1540 [13a 1 0 800] ------- [0:0 4:0 29 5] [1 0] 1 0
r 1.068318690 _1_ RTR  --- 3 tcp 1540 [13a 1 0 800] ------- [0:0 4:0 30 1] [2 0] 1 0
f 1.068318690 _1_ RTR  --- 3 tcp 1540 [13a 1 0 800] ------- [0:0 4:0 29 5] [2 0] 1 0
r 1.082344612 _5_ RTR  --- 2 tcp 1540 [13a 5 1 800] ------- [0:0 4:0 29 5] [1 0] 2 0
f 1.082344612 _5_ RTR  --- 2 tcp 1540 [13a 5 1 800] ------- [0:0 4:0 28 4] [1 0] 2 0
r 1.096231174 _5_ RTR  --- 3 tcp 1540 [13a 5 1 800] ------- [0:0 4:0 29 5] [2 0] 2 0
f 1.096231174 _5_ RTR  --- 3 tcp 1540 [13a 5 1 800] ------- [0:0 4:0 28 4] [2 0] 2 0
r 1.110577014 _4_ AGT  --- 2 tcp 1540 [13a 4 5 800] ------- [0:0 4:0 28 4] [1 0] 3 0
s 1.110577014 _4_ AGT  --- 4 ack 40 [0 0 0 0] ------- [4:0 0:0 32 0] [1 0] 0 0
r 1.110577014 _4_ RTR  --- 4 ack 40 [0 0 0 0] ------- [4:0 0:0 32 0] [1 0] 0 0
s 1.110577014 _4_ RTR  --- 4 ack 40 [0 0 0 0] ------- [4:0 0:0 30 5] [1 0] 0 0
r 1.112742854 _5_ RTR  --- 4 ack 40 [13a 5 4 800] ------- [4:0 0:0 30 5] [1 0] 1 0
f 1.112742854 _5_ RTR  --- 4 ack 40 [13a 5 4 800] ------- [4:0 0:0 29 1] [1 0] 1 0
r 1.126748694 _4_ AGT  --- 3 tcp 1540 [13a 4 5 800] ------- [0:0 4:0 28 4] [2 0] 3 0
s 1.126748694 _4_ AGT  --- 5 ack 40 [0 0 0 0] ------- [4:0 0:0 32 0] [2 0] 0 0
r 1.126748694 _4_ RTR  --- 5 ack 40 [0 0 0 0] ------- [4:0 0:0 32 0] [2 0] 0 0
s 1.126748694 _4_ RTR  --- 5 ack 40 [0 0 0 0] ------- [4:0 0:0 30 5] [2 0] 0 0
r 1.128694533 _5_ RTR  --- 5 ack 40 [13a 5 4 800] ------- [4:0 0:0 30 5] [2 0] 1 0
f 1.128694533 _5_ RTR  --- 5 ack 40 [13a 5 4 800] ------- [4:0 0:0 29 1] [2 0] 1 0
r 1.130600452 _1_ RTR  --- 4 ack 40 [13a 1 5 800] ------- [4:0 0:0 29 1] [1 0] 2 0
f 1.130600452 _1_ RTR  --- 4 ack 40 [13a 1 5 800] ------- [4:0 0:0 28 0] [1 0] 2 0
r 1.132427010 _1_ RTR  --- 5 ack 40 [13a 1 5 800] ------- [4:0 0:0 29 1] [2 0] 2 0
f 1.132427010 _1_ RTR  --- 5 ack 40 [13a 1 5 800] ------- [4:0 0:0 28 0] [2 0] 2 0
r 1.134732033 _0_ AGT  --- 4 ack 40 [13a 0 1 800] ------- [4:0 0:0 28 0] [1 0] 3 0
s 1.134732033 _0_ AGT  --- 6 tcp 1540 [0 0 0 0] ------- [0:0 4:0 32 0] [3 0] 0 0
r 1.134732033 _0_ RTR  --- 6 tcp 1540 [0 0 0 0] ------- [0:0 4:0 32 0] [3 0] 0 0
s 1.134732033 _0_ AGT  --- 7 tcp 1540 [0 0 0 0] ------- [0:0 4:0 32 0] [4 0] 0 0
r 1.134732033 _0_ RTR  --- 7 tcp 1540 [0 0 0 0] ------- [0:0 4:0 32 0] [4 0] 0 0
s 1.134732033 _0_ RTR  --- 6 tcp 1540 [0 0 0 0] ------- [0:0 4:0 30 1] [3 0] 0 0
s 1.134732033 _0_ RTR  --- 7 tcp 1540 [0 0 0 0] ------- [0:0 4:0 30 1] [4 0] 0 0
r 1.136717397 _0_ AGT  --- 5 ack 40 [13a 0 1 800] ------- [4:0 0:0 28 0] [2 0] 3 0
s 1.136717397 _0_ AGT  --- 8 tcp 1540 [0 0 0 0] ------- [0:0 4:0 32 0] [5 0] 0 0
r 1.136717397 _0_ RTR  --- 8 tcp 1540 [0 0 0 0] ------- [0:0 4:0 32 0] [5 0] 0 0
s 1.136717397 _0_ AGT  --- 9 tcp 1540 [0 0 0 0] ------- [0:0 4:0 32 0] [6 0] 0 0
r 1.136717397 _0_ RTR  --- 9 tcp 1540 [0 0 0 0] ------- [0:0 4:0 32 0] [6 0] 0 0
s 1.136717397 _0_ RTR  --- 8 tcp 1540 [0 0 0 0] ------- [0:0 4:0 30 1] [5 0] 0 0
s 1.136717397 _0_ RTR  --- 9 tcp 1540 [0 0 0 0] ------- [0:0 4:0 30 1] [6 0] 0 0
r 1.150702420 _1_ RTR  --- 6 tcp 1540 [13a 1 0 800] ------- [0:0 4:0 30 1] [3 0] 1 0
f 1.150702420 _1_ RTR  --- 6 tcp 1540 [13a 1 0 800] ------- [0:0 4:0 29 5] [3 0] 1 0
r 1.164588338 _5_ RTR  --- 6 tcp 1540 [13a 5 1 800] ------- [0:0 4:0 29 5] [3 0] 2 0
f 1.164588338 _5_ RTR  --- 6 tcp 1540 [13a 5 1 800] ------- [0:0 4:0 28 4] [3 0] 2 0
r 1.178714177 _4_ AGT  --- 6 tcp 1540 [13a 4 5 800] ------- [0:0 4:0 28 4] [3 0] 3 0
s 1.178714177 _4_ AGT  --- 10 ack 40 [0 0 0 0] ------- [4:0 0:0 32 0] [3 0] 0 0
r 1.178714177 _4_ RTR  --- 10 ack 40 [0 0 0 0] ------- [4:0 0:0 32 0] [3 0] 0 0
s 1.178714177 _4_ RTR  --- 10 ack 40 [0 0 0 0] ------- [4:0 0:0 30 5] [3 0] 0 0
r 1.180780017 _5_ RTR  --- 10 ack 40 [13a 5 4 800] ------- [4:0 0:0 30 5] [3 0] 1 0
f 1.180780017 _5_ RTR  --- 10 ack 40 [13a 5 4 800] ------- [4:0 0:0 29 1] [3 0] 1 0
r 1.182685932 _1_ RTR  --- 10 ack 40 [13a 1 5 800] ------- [4:0 0:0 29 1] [3 0] 2 0
f 1.182685932 _1_ RTR  --- 10 ack 40 [13a 1 5 800] ------- [4:0 0:0 28 0] [3 0] 2 0
r 1.184530958 _0_ AGT  --- 10 ack 40 [13a 0 1 800] ------- [4:0 0:0 28 0] [3 0] 3 0
s 1.184530958 _0_ AGT  --- 11 tcp 1540 [0 0 0 0] ------- [0:0 4:0 32 0] [7 0] 0 0
r 1.184530958 _0_ RTR  --- 11 tcp 1540 [0 0 0 0] ------- [0:0 4:0 32 0] [7 0] 0 0
s 1.184530958 _0_ AGT  --- 12 tcp 1540 [0 0 0 0] ------- [0:0 4:0 32 0] [8 0] 0 0
r 1.184530958 _0_ RTR  --- 12 tcp 1540 [0 0 0 0] ------- [0:0 4:0 32 0] [8 0] 0 0
s 1.184530958 _0_ RTR  --- 11 tcp 1540 [0 0 0 0] ------- [0:0 4:0 30 1] [7 0] 0 0
s 1.184530958 _0_ RTR  --- 12 tcp 1540 [0 0 0 0] ------- [0:0 4:0 30 1] [8 0] 0 0
r 1.198375983 _1_ RTR  --- 7 tcp 1540 [13a 1 0 800] ------- [0:0 4:0 30 1] [4 0] 1 0
f 1.198375983 _1_ RTR  --- 7 tcp 1540 [13a 1 0 800] ------- [0:0 4:0 29 5] [4 0] 1 0
r 1.212321350 _1_ RTR  --- 8 tcp 1540 [13a 1 0 800] ------- [0:0 4:0 30 1] [5 0] 1 0
f 1.212321350 _1_ RTR  --- 8 tcp 1540 [13a 1 0 800] ------- [0:0 4:0 29 5] [5 0] 1 0
r 1.226247264 _5_ RTR  --- 7 tcp 1540 [13a 5 1 800] ------- [0:0 4:0 29 5] [4 0] 2 0
f 1.226247264 _5_ RTR  --- 7 tcp 1540 [13a 5 1 800] ------- [0:0 4:0 28 4] [4 0] 2 0
r 1.240113814 _5_ RTR  --- 8 tcp 1540 [13a 5 1 800] ------- [0:0 4:0 29 5] [5 0] 2 0
f 1.240113814 _5_ RTR  --- 8 tcp 1540 [13a 5 1 800] ------- [0:0 4:0 28 4] [5 0] 2 0
r 1.254279654 _4_ AGT  --- 7 tcp 1540 [13a 4 5 800] ------- [0:0 4:0 28 4] [4 0] 3 0
s 1.254279654 _4_ AGT  --- 13 ack 40 [0 0 0 0] ------- [4:0 0:0 32 0] [4 0] 0 0
r 1.254279654 _4_ RTR  --- 13 ack 40 [0 0 0 0] ------- [4:0 0:0 32 0] [4 0] 0 0
s 1.254279654 _4_ RTR  --- 13 ack 40 [0 0 0 0] ------- [4:0 0:0 30 5] [4 0] 0 0
r 1.256225493 _5_ RTR  --- 13 ack 40 [13a 5 4 800] ------- [4:0 0:0 30 5] [4 0] 1 0
f 1.256225493 _5_ RTR  --- 13 ack 40 [13a 5 4 800] ------- [4:0 0:0 29 1] [4 0] 1 0
r 1.270151333 _4_ AGT  --- 8 tcp 1540 [13a 4 5 800] ------- [0:0 4:0 28 4] [5 0] 3 0
s 1.270151333 _4_ AGT  --- 14 ack 40 [0 0 0 0] ------- [4:0 0:0 32 0] [5 0] 0 0
r 1.270151333 _4_ RTR  --- 14 ack 40 [0 0 0 0] ------- [4:0 0:0 32 0] [5 0] 0 0
s 1.270151333 _4_ RTR  --- 14 ack 40 [0 0 0 0] ------- [4:0 0:0 30 5] [5 0] 0 0
r 1.271997173 _5_ RTR  --- 14 ack 40 [13a 5 4 800] ------- [4:0 0:0 30 5] [5 0] 1 0
f 1.271997173 _5_ RTR  --- 14 ack 40 [13a 5 4 800] ------- [4:0 0:0 29 1] [5 0] 1 0
r 1.273903083 _1_ RTR  --- 13 ack 40 [13a 1 5 800] ------- [4:0 0:0 29 1] [4 0] 2 0
f 1.273903083 _1_ RTR  --- 13 ack 40 [13a 1 5 800] ------- [4:0 0:0 28 0] [4 0] 2 0
r 1.275808111 _0_ AGT  --- 13 ack 40 [13a 0 1 800] ------- [4:0 0:0 28 0] [4 0] 3 0
s 1.275808111 _0_ AGT  --- 15 tcp 1540 [0 0 0 0] ------- [0:0 4:0 32 0] [9 0] 0 0
r 1.275808111 _0_ RTR  --- 15 tcp 1540 [0 0 0 0] ------- [0:0 4:0 32 0] [9 0] 0 0
s 1.275808111 _0_ AGT  --- 16 tcp 1540 [0 0 0 0] ------- [0:0 4:0 32 0] [10 0] 0 0
r 1.275808111 _0_ RTR  --- 16 tcp 1540 [0 0 0 0] ------- [0:0 4:0 32 0] [10 0] 0 0
s 1.275808111 _0_ RTR  --- 15 tcp 1540 [0 0 0 0] ------- [0:0 4:0 30 1] [9 0] 0 0
s 1.275808111 _0_ RTR  --- 16 tcp 1540 [0 0 0 0] ------- [0:0 4:0 30 1] [10 0] 0 0
r 1.289813140 _1_ RTR  --- 9 tcp 1540 [13a 1 0 800] ------- [0:0 4:0 30 1] [6 0] 1 0
f 1.289813140 _1_ RTR  --- 9 tcp 1540 [13a 1 0 800] ------- [0:0 4:0 29 5] [6 0] 1 0
r 1.291829663 _1_ RTR  --- 14 ack 40 [13a 1 5 800] ------- [4:0 0:0 29 1] [5 0] 2 0
f 1.291829663 _1_ RTR  --- 14 ack 40 [13a 1 5 800] ------- [4:0 0:0 28 0] [5 0] 2 0
r 1.305815572 _5_ RTR  --- 9 tcp 1540 [13a 5 1 800] ------- [0:0 4:0 29 5] [6 0] 2 0
f 1.305815572 _5_ RTR  --- 9 tcp 1540 [13a 5 1 800] ------- [0:0 4:0 28 4] [6 0] 2 0
r 1.319701411 _4_ AGT  --- 9 tcp 1540 [13a 4 5 800] ------- [0:0 4:0 28 4] [6 0] 3 0
s 1.319701411 _4_ AGT  --- 17 ack 40 [0 0 0 0] ------- [4:0 0:0 32 0] [6 0] 0 0
r 1.319701411 _4_ RTR  --- 17 ack 40 [0 0 0 0] ------- [4:0 0:0 32 0] [6 0] 0 0
s 1.319701411 _4_ RTR  --- 17 ack 40 [0 0 0 0] ------- [4:0 0:0 30 5] [6 0] 0 0
r 1.321727251 _5_ RTR  --- 17 ack 40 [13a 5 4 800] ------- [4:0 0:0 30 5] [6 0] 1 0
f 1.321727251 _5_ RTR  --- 17 ack 40 [13a 5 4 800] ------- [4:0 0:0 29 1] [6 0] 1 0
r 1.324142907 _0_ AGT  --- 14 ack 40 [13a 0 1 800] ------- [4:0 0:0 28 0] [5 0] 3 0
s 1.324142907 _0_ AGT  --- 18 tcp 1540 [0 0 0 0] ------- [0:0 4:0 32 0] [11 0] 0 0
r 1.324142907 _0_ RTR  --- 18 tcp 1540 [0 0 0 0] ------- [0:0 4:0 32 0] [11 0] 0 0
s 1.324142907 _0_ AGT  --- 19 tcp 1540 [0 0 0 0] ------- [0:0 4:0 32 0] [12 0] 0 0
r 1.324142907 _0_ RTR  --- 19 tcp 1540 [0 0 0 0] ------- [0:0 4:0 32 0] [12 0] 0 0
s 1.324142907 _0_ RTR  --- 18 tcp 1540 [0 0 0 0] ------- [0:0 4:0 30 1] [11 0] 0 0
s 1.324142907 _0_ RTR  --- 19 tcp 1540 [0 0 0 0] ------- [0:0 4:0 30 1] [12 0] 0 0
r 1.338067938 _1_ RTR  --- 11 tcp 1540 [13a 1 0 800] ------- [0:0 4:0 30 1] [7 0] 1 0
f 1.338067938 _1_ RTR  --- 11 tcp 1540 [13a 1 0 800] ------- [0:0 4:0 29 5] [7 0] 1 0
r 1.339964457 _1_ RTR  --- 17 ack 40 [13a 1 5 800] ------- [4:0 0:0 29 1] [6 0] 2 0
f 1.339964457 _1_ RTR  --- 17 ack 40 [13a 1 5 800] ------- [4:0 0:0 28 0] [6 0] 2 0
r 1.354079809 _1_ RTR  --- 12 tcp 1540 [13a 1 0 800] ------- [0:0 4:0 30 1] [8 0] 1 0
f 1.354079809 _1_ RTR  --- 12 tcp 1540 [13a 1 0 800] ------- [0:0 4:0 29 5] [8 0] 1 0
r 1.368005714 _5_ RTR  --- 11 tcp 1540 [13a 5 1 800] ------- [0:0 4:0 29 5] [7 0] 2 0
f 1.368005714 _5_ RTR  --- 11 tcp 1540 [13a 5 1 800] ------- [0:0 4:0 28 4] [7 0] 2 0
r 1.369871382 _0_ AGT  --- 17 ack 40 [13a 0 1 800] ------- [4:0 0:0 28 0] [6 0] 3 0
s 1.369871382 _0_ AGT  --- 20 tcp 1540 [0 0 0 0] ------- [0:0 4:0 32 0] [13 0] 0 0
r 1.369871382 _0_ RTR  --- 20 tcp 1540 [0 0 0 0] ------- [0:0 4:0 32 0] [13 0] 0 0
s 1.369871382 _0_ AGT  --- 21 tcp 1540 [0 0 0 0] ------- [0:0 4:0 32 0] [14 0] 0 0
r 1.369871382 _0_ RTR  --- 21 tcp 1540 [0 0 0 0] ------- [0:0 4:0 32 0] [14 0] 0 0
s 1.369871382 _0_ RTR  --- 20 tcp 1540 [0 0 0 0] ------- [0:0 4:0 30 1] [13 0] 0 0
s 1.369871382 _0_ RTR  --- 21 tcp 1540 [0 0 0 0] ------- [0:0 4:0 30 1] [14 0] 0 0
r 1.383896414 _1_ RTR  --- 15 tcp 1540 [13a 1 0 800] ------- [0:0 4:0 30 1] [9 0] 1 0
f 1.383896414 _1_ RTR  --- 15 tcp 1540 [13a 1 0 800] ------- [0:0 4:0 29 5] [9 0] 1 0
r 1.397941792 _1_ RTR  --- 16 tcp 1540 [13a 1 0 800] ------- [0:0 4:0 30 1] [10 0] 1 0
f 1.397941792 _1_ RTR  --- 16 tcp 1540 [13a 1 0 800] ------- [0:0 4:0 29 5] [10 0] 1 0
r 1.411927694 _5_ RTR  --- 12 tcp 1540 [13a 5 1 800] ------- [0:0 4:0 29 5] [8 0] 2 0
f 1.411927694 _5_ RTR  --- 12 tcp 1540 [13a 5 1 800] ------- [0:0 4:0 28 4] [8 0] 2 0
r 1.425793534 _4_ AGT  --- 11 tcp 1540 [13a 4 5 800] ------- [0:0 4:0 28 4] [7 0] 3 0
s 1.425793534 _4_ AGT  --- 22 ack 40 [0 0 0 0] ------- [4:0 0:0 32 0] [7 0] 0 0
r 1.425793534 _4_ RTR  --- 22 ack 40 [0 0 0 0] ------- [4:0 0:0 32 0] [7 0] 0 0
s 1.425793534 _4_ RTR  --- 22 ack 40 [0 0 0 0] ------- [4:0 0:0 30 5] [7 0] 0 0
r 1.440004108 _1_ RTR  --- 18 tcp 1540 [13a 1 0 800] ------- [0:0 4:0 30 1] [11 0] 1 0
f 1.440004108 _1_ RTR  --- 18 tcp 1540 [13a 1 0 800] ------- [0:0 4:0 29 5] [11 0] 1 0
r 1.453900558 _4_ AGT  --- 12 tcp 1540 [13a 4 5 800] ------- [0:0 4:0 28 4] [8 0] 3 0
s 1.453900558 _4_ AGT  --- 23 ack 40 [0 0 0 0] ------- [4:0 0:0 32 0] [8 0] 0 0
r 1.453900558 _4_ RTR  --- 23 ack 40 [0 0 0 0] ------- [4:0 0:0 32 0] [8 0] 0 0
s 1.453900558 _4_ RTR  --- 23 ack 40 [0 0 0 0] ------- [4:0 0:0 30 5] [8 0] 0 0
r 1.455786398 _5_ RTR  --- 22 ack 40 [13a 5 4 800] ------- [4:0 0:0 30 5] [7 0] 1 0
f 1.455786398 _5_ RTR  --- 22 ack 40 [13a 5 4 800] ------- [4:0 0:0 29 1] [7 0] 1 0
r 1.469722920 _5_ RTR  --- 15 tcp 1540 [13a 5 1 800] ------- [0:0 4:0 29 5] [9 0] 2 0
f 1.469722920 _5_ RTR  --- 15 tcp 1540 [13a 5 1 800] ------- [0:0 4:0 28 4] [9 0] 2 0
r 1.483549452 _5_ RTR  --- 16 tcp 1540 [13a 5 1 800] ------- [0:0 4:0 29 5] [10 0] 2 0
f 1.483549452 _5_ RTR  --- 16 tcp 1540 [13a 5 1 800] ------- [0:0 4:0 28 4] [10 0] 2 0
r 1.485395349 _1_ RTR  --- 22 ack 40 [13a 1 5 800] ------- [4:0 0:0 29 1] [7 0] 2 0
f 1.485395349 _1_ RTR  --- 22 ack 40 [13a 1 5 800] ------- [4:0 0:0 28 0] [7 0] 2 0
r 1.499330710 _1_ RTR  --- 19 tcp 1540 [13a 1 0 800] ------- [0:0 4:0 30 1] [12 0] 1 0
f 1.499330710 _1_ RTR  --- 19 tcp 1540 [13a 1 0 800] ------- [0:0 4:0 29 5] [12 0] 1 0
r 1.513196606 _5_ RTR  --- 18 tcp 1540 [13a 5 1 800] ------- [0:0 4:0 29 5] [11 0] 2 0
f 1.513196606 _5_ RTR  --- 18 tcp 1540 [13a 5 1 800] ------- [0:0 4:0 28 4] [11 0] 2 0
r 1.515193050 _5_ RTR  --- 23 ack 40 [13a 5 4 800] ------- [4:0 0:0 30 5] [8 0] 1 0
f 1.515193050 _5_ RTR  --- 23 ack 40 [13a 5 4 800] ------- [4:0 0:0 29 1] [8 0] 1 0
r 1.529118889 _4_ AGT  --- 15 tcp 1540 [13a 4 5 800] ------- [0:0 4:0 28 4] [9 0] 3 0
s 1.529118889 _4_ AGT  --- 24 ack 40 [0 0 0 0] ------- [4:0 0:0 32 0] [9 0] 0 0
r 1.529118889 _4_ RTR  --- 24 ack 40 [0 0 0 0] ------- [4:0 0:0 32 0] [9 0] 0 0
s 1.529118889 _4_ RTR  --- 24 ack 40 [0 0 0 0] ------- [4:0 0:0 30 5] [9 0] 0 0
r 1.543265342 _4_ AGT  --- 16 tcp 1540 [13a 4 5 800] ------- [0:0 4:0 28 4] [10 0] 3 0
s 1.543265342 _4_ AGT  --- 25 ack 40 [0 0 0 0] ------- [4:0 0:0 32 0] [10 0] 0 0
r 1.543265342 _4_ RTR  --- 25 ack 40 [0 0 0 0] ------- [4:0 0:0 32 0] [10 0] 0 0
s 1.543265342 _4_ RTR  --- 25 ack 40 [0 0 0 0] ------- [4:0 0:0 30 5] [10 0] 0 0
r 1.545191181 _5_ RTR  --- 24 ack 40 [13a 5 4 800] ------- [4:0 0:0 30 5] [9 0] 1 0
f 1.545191181 _5_ RTR  --- 24 ack 40 [13a 5 4 800] ------- [4:0 0:0 29 1] [9 0] 1 0
r 1.547037634 _5_ RTR  --- 25 ack 40 [13a 5 4 800] ------- [4:0 0:0 30 5] [10 0] 1 0
f 1.547037634 _5_ RTR  --- 25 ack 40 [13a 5 4 800] ------- [4:0 0:0 29 1] [10 0] 1 0
r 1.560923473 _4_ AGT  --- 18 tcp 1540 [13a 4 5 800] ------- [0:0 4:0 28 4] [11 0] 3 0
s 1.560923473 _4_ AGT  --- 26 ack 40 [0 0 0 0] ------- [4:0 0:0 32 0] [11 0] 0 0
r 1.560923473 _4_ RTR  --- 26 ack 40 [0 0 0 0] ------- [4:0 0:0 32 0] [11 0] 0 0
s 1.560923473 _4_ RTR  --- 26 ack 40 [0 0 0 0] ------- [4:0 0:0 30 5] [11 0] 0 0
r 1.562849979 _1_ RTR  --- 23 ack 40 [13a 1 5 800] ------- [4:0 0:0 29 1] [8 0] 2 0
f 1.562849979 _1_ RTR  --- 23 ack 40 [13a 1 5 800] ------- [4:0 0:0 28 0] [8 0] 2 0
r 1.564676503 _1_ RTR  --- 24 ack 40 [13a 1 5 800] ------- [4:0 0:0 29 1] [9 0] 2 0
f 1.564676503 _1_ RTR  --- 24 ack 40 [13a 1 5 800] ------- [4:0 0:0 28 0] [9 0] 2 0
r 1.566563026 _1_ RTR  --- 25 ack 40 [13a 1 5 800] ------- [4:0 0:0 29 1] [10 0] 2 0
f 1.566563026 _1_ RTR  --- 25 ack 40 [13a 1 5 800] ------- [4:0 0:0 28 0] [10 0] 2 0
r 1.568548067 _0_ AGT  --- 22 ack 40 [13a 0 1 800] ------- [4:0 0:0 28 0] [7 0] 3 0
s 1.568548067 _0_ AGT  --- 27 tcp 1540 [0 0 0 0] ------- [0:0 4:0 32 0] [15 0] 0 0
r 1.568548067 _0_ RTR  --- 27 tcp 1540 [0 0 0 0] ------- [0:0 4:0 32 0] [15 0] 0 0
s 1.568548067 _0_ AGT  --- 28 tcp 1540 [0 0 0 0] ------- [0:0 4:0 32 0] [16 0] 0 0
r 1.568548067 _0_ RTR  --- 28 tcp 1540 [0 0 0 0] ------- [0:0 4:0 32 0] [16 0] 0 0
s 1.568548067 _0_ RTR  --- 27 tcp 1540 [0 0 0 0] ------- [0:0 4:0 30 1] [15 0] 0 0
s 1.568548067 _0_ RTR  --- 28 tcp 1540 [0 0 0 0] ------- [0:0 4:0 30 1] [16 0] 0 0
r 1.582553107 _1_ RTR  --- 20 tcp 1540 [13a 1 0 800] ------- [0:0 4:0 30 1] [13 0] 1 0
f 1.582553107 _1_ RTR  --- 20 tcp 1540 [13a 1 0 800] ------- [0:0 4:0 29 5] [13 0] 1 0
r 1.585646833 _5_ RTR  --- 26 ack 40 [13a 5 4 800] ------- [4:0 0:0 30 5] [11 0] 1 0
f 1.585646833 _5_ RTR  --- 26 ack 40 [13a 5 4 800] ------- [4:0 0:0 29 1] [11 0] 1 0
r 1.587532725 _1_ RTR  --- 26 ack 40 [13a 1 5 800] ------- [4:0 0:0 29 1] [11 0] 2 0
f 1.587532725 _1_ RTR  --- 26 ack 40 [13a 1 5 800] ------- [4:0 0:0 28 0] [11 0] 2 0
r 1.601888091 _1_ RTR  --- 21 tcp 1540 [13a 1 0 800] ------- [0:0 4:0 30 1] [14 0] 1 0
f 1.601888091 _1_ RTR  --- 21 tcp 1540 [13a 1 0 800] ------- [0:0 4:0 29 5] [14 0] 1 0
r 1.615733480 _1_ RTR  --- 27 tcp 1540 [13a 1 0 800] ------- [0:0 4:0 30 1] [15 0] 1 0
f 1.615733480 _1_ RTR  --- 27 tcp 1540 [13a 1 0 800] ------- [0:0 4:0 29 5] [15 0] 1 0
r 1.629579370 _5_ RTR  --- 19 tcp 1540 [13a 5 1 800] ------- [0:0 4:0 29 5] [12 0] 2 0
f 1.629579370 _5_ RTR  --- 19 tcp 1540 [13a 5 1 800] ------- [0:0 4:0 28 4] [12 0] 2 0
r 1.631785042 _0_ AGT  --- 23 ack 40 [13a 0 1 800] ------- [4:0 0:0 28 0] [8 0] 3 0
s 1.631785042 _0_ AGT  --- 29 tcp 1540 [0 0 0 0] ------- [0:0 4:0 32 0] [17 0] 0 0
r 1.631785042 _0_ RTR  --- 29 tcp 1540 [0 0 0 0] ------- [0:0 4:0 32 0] [17 0] 0 0
s 1.631785042 _0_ AGT  --- 30 tcp 1540 [0 0 0 0] ------- [0:0 4:0 32 0] [18 0] 0 0
r 1.631785042 _0_ RTR  --- 30 tcp 1540 [0 0 0 0] ------- [0:0 4:0 32 0] [18 0] 0 0
s 1.631785042 _0_ RTR  --- 29 tcp 1540 [0 0 0 0] ------- [0:0 4:0 30 1] [17 0] 0 0
s 1.631785042 _0_ RTR  --- 30 tcp 1540 [0 0 0 0] ------- [0:0 4:0 30 1] [18 0] 0 0
r 1.645970085 _1_ RTR  --- 28 tcp 1540 [13a 1 0 800] ------- [0:0 4:0 30 1] [16 0] 1 0
f 1.645970085 _1_ RTR  --- 28 tcp 1540 [13a 1 0 800] ------- [0:0 4:0 29 5] [16 0] 1 0
r 1.659906532 _4_ AGT  --- 19 tcp 1540 [13a 4 5 800] ------- [0:0 4:0 28 4] [12 0] 3 0
s 1.659906532 _4_ AGT  --- 31 ack 40 [0 0 0 0] ------- [4:0 0:0 32 0] [12 0] 0 0
r 1.659906532 _4_ RTR  --- 31 ack 40 [0 0 0 0] ------- [4:0 0:0 32 0] [12 0] 0 0
s 1.659906532 _4_ RTR  --- 31 ack 40 [0 0 0 0] ------- [4:0 0:0 30 5] [12 0] 0 0
r 1.661912372 _5_ RTR  --- 31 ack 40 [13a 5 4 800] ------- [4:0 0:0 30 5] [12 0] 1 0
f 1.661912372 _5_ RTR  --- 31 ack 40 [13a 5 4 800] ------- [4:0 0:0 29 1] [12 0] 1 0
r 1.663808037 _0_ AGT  --- 24 ack 40 [13a 0 1 800] ------- [4:0 0:0 28 0] [9 0] 3 0
s 1.663808037 _0_ AGT  --- 32 tcp 1540 [0 0 0 0] ------- [0:0 4:0 32 0] [19 0] 0 0
r 1.663808037 _0_ RTR  --- 32 tcp 1540 [0 0 0 0] ------- [0:0 4:0 32 0] [19 0] 0 0
s 1.663808037 _0_ AGT  --- 33 tcp 1540 [0 0 0 0] ------- [0:0 4:0 32 0] [20 0] 0 0
r 1.663808037 _0_ RTR  --- 33 tcp 1540 [0 0 0 0] ------- [0:0 4:0 32 0] [20 0] 0 0
s 1.663808037 _0_ RTR  --- 32 tcp 1540 [0 0 0 0] ------- [0:0 4:0 30 1] [19 0] 0 0
s 1.663808037 _0_ RTR  --- 33 tcp 1540 [0 0 0 0] ------- [0:0 4:0 30 1] [20 0] 0 0
r 1.665773429 _0_ AGT  --- 25 ack 40 [13a 0 1 800] ------- [4:0 0:0 28 0] [10 0] 3 0
s 1.665773429 _0_ AGT  --- 34 tcp 1540 [0 0 0 0] ------- [0:0 4:0 32 0] [21 0] 0 0
r 1.665773429 _0_ RTR  --- 34 tcp 1540 [0 0 0 0] ------- [0:0 4:0 32 0] [21 0] 0 0
s 1.665773429 _0_ AGT  --- 35 tcp 1540 [0 0 0 0] ------- [0:0 4:0 32 0] [22 0] 0 0
r 1.665773429 _0_ RTR  --- 35 tcp 1540 [0 0 0 0] ------- [0:0 4:0 32 0] [22 0] 0 0
s 1.665773429 _0_ RTR  --- 34 tcp 1540 [0 0 0 0] ------- [0:0 4:0 30 1] [21 0] 0 0
s 1.665773429 _0_ RTR  --- 35 tcp 1540 [0 0 0 0] ------- [0:0 4:0 30 1] [22 0] 0 0
r 1.679678473 _1_ RTR  --- 29 tcp 1540 [13a 1 0 800] ------- [0:0 4:0 30 1] [17 0] 1 0
f 1.679678473 _1_ RTR  --- 29 tcp 1540 [13a 1 0 800] ------- [0:0 4:0 29 5] [17 0] 1 0
r 1.693503866 _1_ RTR  --- 30 tcp 1540 [13a 1 0 800] ------- [0:0 4:0 30 1] [18 0] 1 0
f 1.693503866 _1_ RTR  --- 30 tcp 1540 [13a 1 0 800] ------- [0:0 4:0 29 5] [18 0] 1 0
r 1.707429260 _1_ RTR  --- 32 tcp 1540 [13a 1 0 800] ------- [0:0 4:0 30 1] [19 0] 1 0
f 1.707429260 _1_ RTR  --- 32 tcp 1540 [13a 1 0 800] ------- [0:0 4:0 29 5] [19 0] 1 0
r 1.721254655 _1_ RTR  --- 33 tcp 1540 [13a 1 0 800] ------- [0:0 4:0 30 1] [20 0] 1 0
f 1.721254655 _1_ RTR  --- 33 tcp 1540 [13a 1 0 800] ------- [0:0 4:0 29 5] [20 0] 1 0
r 1.735140538 _5_ RTR  --- 20 tcp 1540 [13a 5 1 800] ------- [0:0 4:0 29 5] [13 0] 2 0
f 1.735140538 _5_ RTR  --- 20 tcp 1540 [13a 5 1 800] ------- [0:0 4:0 28 4] [13 0] 2 0
r 1.737226421 _1_ RTR  --- 31 ack 40 [13a 1 5 800] ------- [4:0 0:0 29 1] [12 0] 2 0
f 1.737226421 _1_ RTR  --- 31 ack 40 [13a 1 5 800] ------- [4:0 0:0 28 0] [12 0] 2 0
r 1.739371468 _0_ AGT  --- 26 ack 40 [13a 0 1 800] ------- [4:0 0:0 28 0] [11 0] 3 0
s 1.739371468 _0_ AGT  --- 36 tcp 1540 [0 0 0 0] ------- [0:0 4:0 32 0] [23 0] 0 0
r 1.739371468 _0_ RTR  --- 36 tcp 1540 [0 0 0 0] ------- [0:0 4:0 32 0] [23 0] 0 0
s 1.739371468 _0_ AGT  --- 37 tcp 1540 [0 0 0 0] ------- [0:0 4:0 32 0] [24 0] 0 0
r 1.739371468 _0_ RTR  --- 37 tcp 1540 [0 0 0 0] ------- [0:0 4:0 32 0] [24 0] 0 0
s 1.739371468 _0_ RTR  --- 36 tcp 1540 [0 0 0 0] ------- [0:0 4:0 30 1] [23 0] 0 0
s 1.739371468 _0_ RTR  --- 37 tcp 1540 [0 0 0 0] ------- [0:0 4:0 30 1] [24 0] 0 0
r 1.753416516 _1_ RTR  --- 34 tcp 1540 [13a 1 0 800] ------- [0:0 4:0 30 1] [21 0] 1 0
f 1.753416516 _1_ RTR  --- 34 tcp 1540 [13a 1 0 800] ------- [0:0 4:0 29 5] [21 0] 1 0
r 1.767461913 _1_ RTR  --- 35 tcp 1540 [13a 1 0 800] ------- [0:0 4:0 30 1] [22 0] 1 0
f 1.767461913 _1_ RTR  --- 35 tcp 1540 [13a 1 0 800] ------- [0:0 4:0 29 5] [22 0] 1 0
r 1.781427793 _5_ RTR  --- 21 tcp 1540 [13a 5 1 800] ------- [0:0 4:0 29 5] [14 0] 2 0
f 1.781427793 _5_ RTR  --- 21 tcp 1540 [13a 5 1 800] ------- [0:0 4:0 28 4] [14 0] 2 0
r 1.795293633 _4_ AGT  --- 20 tcp 1540 [13a 4 5 800] ------- [0:0 4:0 28 4] [13 0] 3 0
s 1.795293633 _4_ AGT  --- 38 ack 40 [0 0 0 0] ------- [4:0 0:0 32 0] [13 0] 0 0
r 1.795293633 _4_ RTR  --- 38 ack 40 [0 0 0 0] ------- [4:0 0:0 32 0] [13 0] 0 0
s 1.795293633 _4_ RTR  --- 38 ack 40 [0 0 0 0] ------- [4:0 0:0 30 5] [13 0] 0 0
r 1.797359472 _5_ RTR  --- 38 ack 40 [13a 5 4 800] ------- [4:0 0:0 30 5] [13 0] 1 0
f 1.797359472 _5_ RTR  --- 38 ack 40 [13a 5 4 800] ------- [4:0 0:0 29 1] [13 0] 1 0
r 1.811355970 _5_ RTR  --- 27 tcp 1540 [13a 5 1 800] ------- [0:0 4:0 29 5] [15 0] 2 0
f 1.811355970 _5_ RTR  --- 27 tcp 1540 [13a 5 1 800] ------- [0:0 4:0 28 4] [15 0] 2 0
r 1.825301809 _4_ AGT  --- 21 tcp 1540 [13a 4 5 800] ------- [0:0 4:0 28 4] [14 0] 3 0
s 1.825301809 _4_ AGT  --- 39 ack 40 [0 0 0 0] ------- [4:0 0:0 32 0] [14 0] 0 0
r 1.825301809 _4_ RTR  --- 39 ack 40 [0 0 0 0] ------- [4:0 0:0 32 0] [14 0] 0 0
s 1.825301809 _4_ RTR  --- 39 ack 40 [0 0 0 0] ------- [4:0 0:0 30 5] [14 0] 0 0
r 1.827127649 _5_ RTR  --- 39 ack 40 [13a 5 4 800] ------- [4:0 0:0 30 5] [14 0] 1 0
f 1.827127649 _5_ RTR  --- 39 ack 40 [13a 5 4 800] ------- [4:0 0:0 29 1] [14 0] 1 0
r 1.841084144 _5_ RTR  --- 28 tcp 1540 [13a 5 1 800] ------- [0:0 4:0 29 5] [16 0] 2 0
f 1.841084144 _5_ RTR  --- 28 tcp 1540 [13a 5 1 800] ------- [0:0 4:0 28 4] [16 0] 2 0
r 1.855150646 _5_ RTR  --- 29 tcp 1540 [13a 5 1 800] ------- [0:0 4:0 29 5] [17 0] 2 0
f 1.855150646 _5_ RTR  --- 29 tcp 1540 [13a 5 1 800] ------- [0:0 4:0 28 4] [17 0] 2 0
r 1.868977146 _5_ RTR  --- 30 tcp 1540 [13a 5 1 800] ------- [0:0 4:0 29 5] [18 0] 2 0
f 1.868977146 _5_ RTR  --- 30 tcp 1540 [13a 5 1 800] ------- [0:0 4:0 28 4] [18 0] 2 0
r 1.870823021 _1_ RTR  --- 38 ack 40 [13a 1 5 800] ------- [4:0 0:0 29 1] [13 0] 2 0
f 1.870823021 _1_ RTR  --- 38 ack 40 [13a 1 5 800] ------- [4:0 0:0 28 0] [13 0] 2 0
r 1.884768896 _5_ RTR  --- 32 tcp 1540 [13a 5 1 800] ------- [0:0 4:0 29 5] [19 0] 2 0
f 1.884768896 _5_ RTR  --- 32 tcp 1540 [13a 5 1 800] ------- [0:0 4:0 28 4] [19 0] 2 0
r 1.898755394 _5_ RTR  --- 33 tcp 1540 [13a 5 1 800] ------- [0:0 4:0 29 5] [20 0] 2 0
f 1.898755394 _5_ RTR  --- 33 tcp 1540 [13a 5 1 800] ------- [0:0 4:0 28 4] [20 0] 2 0
r 1.912681234 _4_ AGT  --- 27 tcp 1540 [13a 4 5 800] ------- [0:0 4:0 28 4] [15 0] 3 0
s 1.912681234 _4_ AGT  --- 40 ack 40 [0 0 0 0] ------- [4:0 0:0 32 0] [15 0] 0 0
r 1.912681234 _4_ RTR  --- 40 ack 40 [0 0 0 0] ------- [4:0 0:0 32 0] [15 0] 0 0
s 1.912681234 _4_ RTR  --- 40 ack 40 [0 0 0 0] ------- [4:0 0:0 30 5] [15 0] 0 0
r 1.914567074 _5_ RTR  --- 40 ack 40 [13a 5 4 800] ------- [4:0 0:0 30 5] [15 0] 1 0
f 1.914567074 _5_ RTR  --- 40 ack 40 [13a 5 4 800] ------- [4:0 0:0 29 1] [15 0] 1 0
r 1.916862744 _0_ AGT  --- 31 ack 40 [13a 0 1 800] ------- [4:0 0:0 28 0] [12 0] 3 0
s 1.916862744 _0_ AGT  --- 41 tcp 1540 [0 0 0 0] ------- [0:0 4:0 32 0] [25 0] 0 0
r 1.916862744 _0_ RTR  --- 41 tcp 1540 [0 0 0 0] ------- [0:0 4:0 32 0] [25 0] 0 0
s 1.916862744 _0_ AGT  --- 42 tcp 1540 [0 0 0 0] ------- [0:0 4:0 32 0] [26 0] 0 0
r 1.916862744 _0_ RTR  --- 42 tcp 1540 [0 0 0 0] ------- [0:0 4:0 32 0] [26 0] 0 0
s 1.916862744 _0_ RTR  --- 41 tcp 1540 [0 0 0 0] ------- [0:0 4:0 30 1] [25 0] 0 0
s 1.916862744 _0_ RTR  --- 42 tcp 1540 [0 0 0 0] ------- [0:0 4:0 30 1] [26 0] 0 0
r 1.930907799 _1_ RTR  --- 36 tcp 1540 [13a 1 0 800] ------- [0:0 4:0 30 1] [23 0] 1 0
f 1.930907799 _1_ RTR  --- 36 tcp 1540 [13a 1 0 800] ------- [0:0 4:0 29 5] [23 0] 1 0
r 1.932864273 _1_ RTR  --- 39 ack 40 [13a 1 5 800] ------- [4:0 0:0 29 1] [14 0] 2 0
f 1.932864273 _1_ RTR  --- 39 ack 40 [13a 1 5 800] ------- [4:0 0:0 28 0] [14 0] 2 0
r 1.946730736 _4_ AGT  --- 28 tcp 1540 [13a 4 5 800] ------- [0:0 4:0 28 4] [16 0] 3 0
s 1.946730736 _4_ AGT  --- 43 ack 40 [0 0 0 0] ------- [4:0 0:0 32 0] [16 0] 0 0
r 1.946730736 _4_ RTR  --- 43 ack 40 [0 0 0 0] ------- [4:0 0:0 32 0] [16 0] 0 0
s 1.946730736 _4_ RTR  --- 43 ack 40 [0 0 0 0] ------- [4:0 0:0 30 5] [16 0] 0 0
r 1.960917189 _4_ AGT  --- 29 tcp 1540 [13a 4 5 800] ------- [0:0 4:0 28 4] [17 0] 3 0
s 1.960917189 _4_ AGT  --- 44 ack 40 [0 0 0 0] ------- [4:0 0:0 32 0] [17 0] 0 0
r 1.960917189 _4_ RTR  --- 44 ack 40 [0 0 0 0] ------- [4:0 0:0 32 0] [17 0] 0 0
s 1.960917189 _4_ RTR  --- 44 ack 40 [0 0 0 0] ------- [4:0 0:0 30 5] [17 0] 0 0
r 1.974743642 _4_ AGT  --- 30 tcp 1540 [13a 4 5 800] ------- [0:0 4:0 28 4] [18 0] 3 0
s 1.974743642 _4_ AGT  --- 45 ack 40 [0 0 0 0] ------- [4:0 0:0 32 0] [18 0] 0 0
r 1.974743642 _4_ RTR  --- 45 ack 40 [0 0 0 0] ------- [4:0 0:0 32 0] [18 0] 0 0
s 1.974743642 _4_ RTR  --- 45 ack 40 [0 0 0 0] ------- [4:0 0:0 30 5] [18 0] 0 0
r 1.988650095 _4_ AGT  --- 32 tcp 1540 [13a 4 5 800] ------- [0:0 4:0 28 4] [19 0] 3 0
s 1.988650095 _4_ AGT  --- 46 ack 40 [0 0 0 0] ------- [4:0 0:0 32 0] [19 0] 0 0
r 1.988650095 _4_ RTR  --- 46 ack 40 [0 0 0 0] ------- [4:0 0:0 32 0] [19 0] 0 0
s 1.988650095 _4_ RTR  --- 46 ack 40 [0 0 0 0] ------- [4:0 0:0 30 5] [19 0] 0 0
r 1.990515935 _5_ RTR  --- 43 ack 40 [13a 5 4 800] ------- [4:0 0:0 30 5] [16 0] 1 0
f 1.990515935 _5_ RTR  --- 43 ack 40 [13a 5 4 800] ------- [4:0 0:0 29 1] [16 0] 1 0
r 2.004552417 _5_ RTR  --- 34 tcp 1540 [13a 5 1 800] ------- [0:0 4:0 29 5] [21 0] 2 0
f 2.004552417 _5_ RTR  --- 34 tcp 1540 [13a 5 1 800] ------- [0:0 4:0 28 4] [21 0] 2 0
r 2.006528863 _5_ RTR  --- 44 ack 40 [13a 5 4 800] ------- [4:0 0:0 30 5] [17 0] 1 0
f 2.006528863 _5_ RTR  --- 44 ack 40 [13a 5 4 800] ------- [4:0 0:0 29 1] [17 0] 1 0
r 2.020534703 _4_ AGT  --- 33 tcp 1540 [13a 4 5 800] ------- [0:0 4:0 28 4] [20 0] 3 0
s 2.020534703 _4_ AGT  --- 47 ack 40 [0 0 0 0] ------- [4:0 0:0 32 0] [20 0] 0 0
r 2.020534703 _4_ RTR  --- 47 ack 40 [0 0 0 0] ------- [4:0 0:0 32 0] [20 0] 0 0
s 2.020534703 _4_ RTR  --- 47 ack 40 [0 0 0 0] ------- [4:0 0:0 30 5] [20 0] 0 0
r 2.022500543 _5_ RTR  --- 45 ack 40 [13a 5 4 800] ------- [4:0 0:0 30 5] [18 0] 1 0
f 2.022500543 _5_ RTR  --- 45 ack 40 [13a 5 4 800] ------- [4:0 0:0 29 1] [18 0] 1 0
r 2.024366996 _5_ RTR  --- 46 ack 40 [13a 5 4 800] ------- [4:0 0:0 30 5] [19 0] 1 0
f 2.024366996 _5_ RTR  --- 46 ack 40 [13a 5 4 800] ------- [4:0 0:0 29 1] [19 0] 1 0
r 2.038323476 _5_ RTR  --- 35 tcp 1540 [13a 5 1 800] ------- [0:0 4:0 29 5] [22 0] 2 0
f 2.038323476 _5_ RTR  --- 35 tcp 1540 [13a 5 1 800] ------- [0:0 4:0 28 4] [22 0] 2 0
r 2.040329341 _1_ RTR  --- 40 ack 40 [13a 1 5 800] ------- [4:0 0:0 29 1] [15 0] 2 0
f 2.040329341 _1_ RTR  --- 40 ack 40 [13a 1 5 800] ------- [4:0 0:0 28 0] [15 0] 2 0
r 2.042235827 _1_ RTR  --- 43 ack 40 [13a 1 5 800] ------- [4:0 0:0 29 1] [16 0] 2 0
f 2.042235827 _1_ RTR  --- 43 ack 40 [13a 1 5 800] ------- [4:0 0:0 28 0] [16 0] 2 0
r 2.044320886 _0_ AGT  --- 38 ack 40 [13a 0 1 800] ------- [4:0 0:0 28 0] [13 0] 3 0
s 2.044320886 _0_ AGT  --- 48 tcp 1540 [0 0 0 0] ------- [0:0 4:0 32 0] [27 0] 0 0
r 2.044320886 _0_ RTR  --- 48 tcp 1540 [0 0 0 0] ------- [0:0 4:0 32 0] [27 0] 0 0
s 2.044320886 _0_ AGT  --- 49 tcp 1540 [0 0 0 0] ------- [0:0 4:0 32 0] [28 0] 0 0
r 2.044320886 _0_ RTR  --- 49 tcp 1540 [0 0 0 0] ------- [0:0 4:0 32 0] [28 0] 0 0
s 2.044320886 _0_ RTR  --- 48 tcp 1540 [0 0 0 0] ------- [0:0 4:0 30 1] [27 0] 0 0
s 2.044320886 _0_ RTR  --- 49 tcp 1540 [0 0 0 0] ------- [0:0 4:0 30 1] [28 0] 0 0
r 2.058147104 _5_ RTR  --- 36 tcp 1540 [13a 5 1 800] ------- [0:0 4:0 29 5] [23 0] 2 0
f 2.058147104 _5_ RTR  --- 36 tcp 1540 [13a 5 1 800] ------- [0:0 4:0 28 4] [23 0] 2 0
r 2.060303550 _5_ RTR  --- 47 ack 40 [13a 5 4 800] ------- [4:0 0:0 30 5] [20 0] 1 0
f 2.060303550 _5_ RTR  --- 47 ack 40 [13a 5 4 800] ------- [4:0 0:0 29 1] [20 0] 1 0
r 2.074169390 _4_ AGT  --- 34 tcp 1540 [13a 4 5 800] ------- [0:0 4:0 28 4] [21 0] 3 0
s 2.074169390 _4_ AGT  --- 50 ack 40 [0 0 0 0] ------- [4:0 0:0 32 0] [21 0] 0 0
r 2.074169390 _4_ RTR  --- 50 ack 40 [0 0 0 0] ------- [4:0 0:0 32 0] [21 0] 0 0
s 2.074169390 _4_ RTR  --- 50 ack 40 [0 0 0 0] ------- [4:0 0:0 30 5] [21 0] 0 0
r 2.076275230 _5_ RTR  --- 50 ack 40 [13a 5 4 800] ------- [4:0 0:0 30 5] [21 0] 1 0
f 2.076275230 _5_ RTR  --- 50 ack 40 [13a 5 4 800] ------- [4:0 0:0 29 1] [21 0] 1 0
r 2.078201092 _1_ RTR  --- 44 ack 40 [13a 1 5 800] ------- [4:0 0:0 29 1] [17 0] 2 0
f 2.078201092 _1_ RTR  --- 44 ack 40 [13a 1 5 800] ------- [4:0 0:0 28 0] [17 0] 2 0
r 2.080226153 _0_ AGT  --- 39 ack 40 [13a 0 1 800] ------- [4:0 0:0 28 0] [14 0] 3 0
s 2.080226153 _0_ AGT  --- 51 tcp 1540 [0 0 0 0] ------- [0:0 4:0 32 0] [29 0] 0 0
r 2.080226153 _0_ RTR  --- 51 tcp 1540 [0 0 0 0] ------- [0:0 4:0 32 0] [29 0] 0 0
s 2.080226153 _0_ AGT  --- 52 tcp 1540 [0 0 0 0] ------- [0:0 4:0 32 0] [30 0] 0 0
r 2.080226153 _0_ RTR  --- 52 tcp 1540 [0 0 0 0] ------- [0:0 4:0 32 0] [30 0] 0 0
s 2.080226153 _0_ RTR  --- 51 tcp 1540 [0 0 0 0] ------- [0:0 4:0 30 1] [29 0] 0 0
s 2.080226153 _0_ RTR  --- 52 tcp 1540 [0 0 0 0] ------- [0:0 4:0 30 1] [30 0] 0 0