n -t * -s 0  -x 410 -y 642 -Z 0 -z 25  -v circle -c black
n -t * -s 1  -x 883 -y 287 -Z 0 -z 25  -v circle -c black
n -t * -s 2  -x 765 -y 814 -Z 0 -z 25  -v circle -c black
n -t * -s 3  -x 285 -y 542 -Z 0 -z 25  -v circle -c black
n -t * -s 4  -x 312 -y 833 -Z 0 -z 25  -v circle -c black
n -t * -s 5  -x 779 -y 818 -Z 0 -z 25  -v circle -c black
n -t * -s 6  -x 107 -y 502 -Z 0 -z 25  -v circle -c black
n -t * -s 7  -x 327 -y 553 -Z 0 -z 25  -v circle -c black
n -t * -s 8  -x 448 -y 534 -Z 0 -z 25  -v circle -c black
n -t * -s 9  -x 402 -y 459 -Z 0 -z 25  -v circle -c black
V -t * -v 1.0a5 -a 0
W -t * -x 1000 -y 1000
A -t * -n 1 -p 0 -o 0x7fffffff -c 30 -a 1
A -t * -h 1 -m 1073741823 -s 0
+ -t 0.010000000 -s 0 -d -1 -p tcp -e 40 -c 2 -a 0 -i 0 -k AGT 
- -t 0.010000000 -s 0 -d -1 -p tcp -e 40 -c 2 -a 0 -i 0 -k AGT
h -t 0.010000000 -s 0 -d -1 -p tcp -e 40 -c 2 -a 0 -i 0 -k AGT
+ -t 0.010000000 -s 0 -d -1 -p AODV -e 48 -c 2 -a 0 -i 0 -k RTR 
- -t 0.010000000 -s 0 -d -1 -p AODV -e 48 -c 2 -a 0 -i 0 -k RTR
h -t 0.010000000 -s 0 -d -1 -p AODV -e 48 -c 2 -a 0 -i 0 -k RTR
r -t 0.010988382 -s 8 -d -1 -p AODV -e 48 -c 2 -a 0 -i 0 -k RTR
r -t 0.010988406 -s 7 -d -1 -p AODV -e 48 -c 2 -a 0 -i 0 -k RTR
r -t 0.010988534 -s 3 -d -1 -p AODV -e 48 -c 2 -a 0 -i 0 -k RTR
r -t 0.010988611 -s 9 -d -1 -p AODV -e 48 -c 2 -a 0 -i 0 -k RTR
r -t 0.010988716 -s 4 -d -1 -p AODV -e 48 -c 2 -a 0 -i 0 -k RTR
+ -t 0.010988716 -s 4 -d 0 -p AODV -e 44 -c 2 -a 0 -i 0 -k RTR 
- -t 0.010988716 -s 4 -d 0 -p AODV -e 44 -c 2 -a 0 -i 0 -k RTR
h -t 0.010988716 -s 4 -d 0 -p AODV -e 44 -c 2 -a 0 -i 0 -k RTR
+ -t 0.011869608 -s 8 -d -1 -p AODV -e 48 -c 2 -a 0 -i 0 -k RTR 
- -t 0.011869608 -s 8 -d -1 -p AODV -e 48 -c 2 -a 0 -i 0 -k RTR
h -t 0.011869608 -s 8 -d -1 -p AODV -e 48 -c 2 -a 0 -i 0 -k RTR
+ -t 0.014118228 -s 9 -d -1 -p AODV -e 48 -c 2 -a 0 -i 0 -k RTR 
- -t 0.014118228 -s 9 -d -1 -p AODV -e 48 -c 2 -a 0 -i 0 -k RTR
h -t 0.014118228 -s 9 -d -1 -p AODV -e 48 -c 2 -a 0 -i 0 -k RTR
+ -t 0.015400139 -s 7 -d -1 -p AODV -e 48 -c 2 -a 0 -i 0 -k RTR 
- -t 0.015400139 -s 7 -d -1 -p AODV -e 48 -c 2 -a 0 -i 0 -k RTR
h -t 0.015400139 -s 7 -d -1 -p AODV -e 48 -c 2 -a 0 -i 0 -k RTR
+ -t 0.015591725 -s 0 -d 4 -p tcp -e 40 -c 2 -a 0 -i 0 -k RTR 
- -t 0.015591725 -s 0 -d 4 -p tcp -e 40 -c 2 -a 0 -i 0 -k RTR
h -t 0.015591725 -s 0 -d 4 -p tcp -e 40 -c 2 -a 0 -i 0 -k RTR
r -t 0.016894088 -s 3 -d -1 -p AODV -e 48 -c 2 -a 0 -i 0 -k RTR
r -t 0.016894345 -s 9 -d -1 -p AODV -e 48 -c 2 -a 0 -i 0 -k RTR
r -t 0.016894349 -s 0 -d -1 -p AODV -e 48 -c 2 -a 0 -i 0 -k RTR
r -t 0.016894352 -s 8 -d -1 -p AODV -e 48 -c 2 -a 0 -i 0 -k RTR
r -t 0.016894697 -s 6 -d -1 -p AODV -e 48 -c 2 -a 0 -i 0 -k RTR
+ -t 0.018032779 -s 6 -d -1 -p AODV -e 48 -c 2 -a 0 -i 0 -k RTR 
- -t 0.018032779 -s 6 -d -1 -p AODV -e 48 -c 2 -a 0 -i 0 -k RTR
h -t 0.018032779 -s 6 -d -1 -p AODV -e 48 -c 2 -a 0 -i 0 -k RTR
r -t 0.018566496 -s 4 -d 4 -p tcp -e 40 -c 2 -a 0 -i 0 -k AGT
+ -t 0.018566496 -s 4 -d -1 -p ack -e 40 -c 2 -a 0 -i 1 -k AGT 
- -t 0.018566496 -s 4 -d -1 -p ack -e 40 -c 2 -a 0 -i 1 -k AGT
h -t 0.018566496 -s 4 -d -1 -p ack -e 40 -c 2 -a 0 -i 1 -k AGT
+ -t 0.018566496 -s 4 -d 0 -p ack -e 40 -c 2 -a 0 -i 1 -k RTR 
- -t 0.018566496 -s 4 -d 0 -p ack -e 40 -c 2 -a 0 -i 1 -k RTR
h -t 0.018566496 -s 4 -d 0 -p ack -e 40 -c 2 -a 0 -i 1 -k RTR
+ -t 0.018980088 -s 3 -d -1 -p AODV -e 48 -c 2 -a 0 -i 0 -k RTR 
- -t 0.018980088 -s 3 -d -1 -p AODV -e 48 -c 2 -a 0 -i 0 -k RTR
h -t 0.018980088 -s 3 -d -1 -p AODV -e 48 -c 2 -a 0 -i 0 -k RTR
r -t 0.022121207 -s 0 -d 0 -p ack -e 40 -c 2 -a 0 -i 1 -k AGT
+ -t 0.022121207 -s 0 -d -1 -p tcp -e 1540 -c 2 -a 0 -i 2 -k AGT 
- -t 0.022121207 -s 0 -d -1 -p tcp -e 1540 -c 2 -a 0 -i 2 -k AGT
h -t 0.022121207 -s 0 -d -1 -p tcp -e 1540 -c 2 -a 0 -i 2 -k AGT
+ -t 0.022121207 -s 0 -d -1 -p tcp -e 1540 -c 2 -a 0 -i 3 -k AGT 
- -t 0.022121207 -s 0 -d -1 -p tcp -e 1540 -c 2 -a 0 -i 3 -k AGT
h -t 0.022121207 -s 0 -d -1 -p tcp -e 1540 -c 2 -a 0 -i 3 -k AGT
+ -t 0.022121207 -s 0 -d 4 -p tcp -e 1540 -c 2 -a 0 -i 2 -k RTR 
- -t 0.022121207 -s 0 -d 4 -p tcp -e 1540 -c 2 -a 0 -i 2 -k RTR
h -t 0.022121207 -s 0 -d 4 -p tcp -e 1540 -c 2 -a 0 -i 2 -k RTR
+ -t 0.022121207 -s 0 -d 4 -p tcp -e 1540 -c 2 -a 0 -i 3 -k RTR 
- -t 0.022121207 -s 0 -d 4 -p tcp -e 1540 -c 2 -a 0 -i 3 -k RTR
h -t 0.022121207 -s 0 -d 4 -p tcp -e 1540 -c 2 -a 0 -i 3 -k RTR
r -t 0.036147354 -s 4 -d 4 -p tcp -e 1540 -c 2 -a 0 -i 2 -k AGT
+ -t 0.036147354 -s 4 -d -1 -p ack -e 40 -c 2 -a 0 -i 4 -k AGT 
- -t 0.036147354 -s 4 -d -1 -p ack -e 40 -c 2 -a 0 -i 4 -k AGT
h -t 0.036147354 -s 4 -d -1 -p ack -e 40 -c 2 -a 0 -i 4 -k AGT
+ -t 0.036147354 -s 4 -d 0 -p ack -e 40 -c 2 -a 0 -i 4 -k RTR 
- -t 0.036147354 -s 4 -d 0 -p ack -e 40 -c 2 -a 0 -i 4 -k RTR
h -t 0.036147354 -s 4 -d 0 -p ack -e 40 -c 2 -a 0 -i 4 -k RTR
r -t 0.049994216 -s 4 -d 4 -p tcp -e 1540 -c 2 -a 0 -i 3 -k AGT
+ -t 0.049994216 -s 4 -d -1 -p ack -e 40 -c 2 -a 0 -i 5 -k AGT 
- -t 0.049994216 -s 4 -d -1 -p ack -e 40 -c 2 -a 0 -i 5 -k AGT
h -t 0.049994216 -s 4 -d -1 -p ack -e 40 -c 2 -a 0 -i 5 -k AGT
+ -t 0.049994216 -s 4 -d 0 -p ack -e 40 -c 2 -a 0 -i 5 -k RTR 
- -t 0.049994216 -s 4 -d 0 -p ack -e 40 -c 2 -a 0 -i 5 -k RTR
h -t 0.049994216 -s 4 -d 0 -p ack -e 40 -c 2 -a 0 -i 5 -k RTR
r -t 0.051840363 -s 0 -d 0 -p ack -e 40 -c 2 -a 0 -i 4 -k AGT
+ -t 0.051840363 -s 0 -d -1 -p tcp -e 1540 -c 2 -a 0 -i 6 -k AGT 
- -t 0.051840363 -s 0 -d -1 -p tcp -e 1540 -c 2 -a 0 -i 6 -k AGT
h -t 0.051840363 -s 0 -d -1 -p tcp -e 1540 -c 2 -a 0 -i 6 -k AGT
+ -t 0.051840363 -s 0 -d -1 -p tcp -e 1540 -c 2 -a 0 -i 7 -k AGT 
- -t 0.051840363 -s 0 -d -1 -p tcp -e 1540 -c 2 -a 0 -i 7 -k AGT
h -t 0.051840363 -s 0 -d -1 -p tcp -e 1540 -c 2 -a 0 -i 7 -k AGT
+ -t 0.051840363 -s 0 -d 4 -p tcp -e 1540 -c 2 -a 0 -i 6 -k RTR 
- -t 0.051840363 -s 0 -d 4 -p tcp -e 1540 -c 2 -a 0 -i 6 -k RTR
h -t 0.051840363 -s 0 -d 4 -p tcp -e 1540 -c 2 -a 0 -i 6 -k RTR
+ -t 0.051840363 -s 0 -d 4 -p tcp -e 1540 -c 2 -a 0 -i 7 -k RTR 
- -t 0.051840363 -s 0 -d 4 -p tcp -e 1540 -c 2 -a 0 -i 7 -k RTR
h -t 0.051840363 -s 0 -d 4 -p tcp -e 1540 -c 2 -a 0 -i 7 -k RTR
r -t 0.065906510 -s 4 -d 4 -p tcp -e 1540 -c 2 -a 0 -i 6 -k AGT
+ -t 0.065906510 -s 4 -d -1 -p ack -e 40 -c 2 -a 0 -i 8 -k AGT 
- -t 0.065906510 -s 4 -d -1 -p ack -e 40 -c 2 -a 0 -i 8 -k AGT
h -t 0.065906510 -s 4 -d -1 -p ack -e 40 -c 2 -a 0 -i 8 -k AGT
+ -t 0.065906510 -s 4 -d 0 -p ack -e 40 -c 2 -a 0 -i 8 -k RTR 
- -t 0.065906510 -s 4 -d 0 -p ack -e 40 -c 2 -a 0 -i 8 -k RTR
h -t 0.065906510 -s 4 -d 0 -p ack -e 40 -c 2 -a 0 -i 8 -k RTR
r -t 0.079913372 -s 4 -d 4 -p tcp -e 1540 -c 2 -a 0 -i 7 -k AGT
+ -t 0.079913372 -s 4 -d -1 -p ack -e 40 -c 2 -a 0 -i 9 -k AGT 
- -t 0.079913372 -s 4 -d -1 -p ack -e 40 -c 2 -a 0 -i 9 -k AGT
h -t 0.079913372 -s 4 -d -1 -p ack -e 40 -c 2 -a 0 -i 9 -k AGT
+ -t 0.079913372 -s 4 -d 0 -p ack -e 40 -c 2 -a 0 -i 9 -k RTR 
- -t 0.079913372 -s 4 -d 0 -p ack -e 40 -c 2 -a 0 -i 9 -k RTR
h -t 0.079913372 -s 4 -d 0 -p ack -e 40 -c 2 -a 0 -i 9 -k RTR
r -t 0.081779519 -s 0 -d 0 -p ack -e 40 -c 2 -a 0 -i 5 -k AGT
+ -t 0.081779519 -s 0 -d -1 -p tcp -e 1540 -c 2 -a 0 -i 10 -k AGT 
- -t 0.081779519 -s 0 -d -1 -p tcp -e 1540 -c 2 -a 0 -i 10 -k AGT
h -t 0.081779519 -s 0 -d -1 -p tcp -e 1540 -c 2 -a 0 -i 10 -k AGT
+ -t 0.081779519 -s 0 -d -1 -p tcp -e 1540 -c 2 -a 0 -i 11 -k AGT 
- -t 0.081779519 -s 0 -d -1 -p tcp -e 1540 -c 2 -a 0 -i 11 -k AGT
h -t 0.081779519 -s 0 -d -1 -p tcp -e 1540 -c 2 -a 0 -i 11 -k AGT
+ -t 0.081779519 -s 0 -d 4 -p tcp -e 1540 -c 2 -a 0 -i 10 -k RTR 
- -t 0.081779519 -s 0 -d 4 -p tcp -e 1540 -c 2 -a 0 -i 10 -k RTR
h -t 0.081779519 -s 0 -d 4 -p tcp -e 1540 -c 2 -a 0 -i 10 -k RTR
+ -t 0.081779519 -s 0 -d 4 -p tcp -e 1540 -c 2 -a 0 -i 11 -k RTR 
- -t 0.081779519 -s 0 -d 4 -p tcp -e 1540 -c 2 -a 0 -i 11 -k RTR
h -t 0.081779519 -s 0 -d 4 -p tcp -e 1540 -c 2 -a 0 -i 11 -k RTR
r -t 0.083101922 -s 7 -d -1 -p AODV -e 48 -c 2 -a 0 -i 0 -k RTR
r -t 0.083102256 -s 9 -d -1 -p AODV -e 48 -c 2 -a 0 -i 0 -k RTR
r -t 0.083102311 -s 0 -d -1 -p AODV -e 48 -c 2 -a 0 -i 0 -k RTR
r -t 0.083102322 -s 8 -d -1 -p AODV -e 48 -c 2 -a 0 -i 0 -k RTR
r -t 0.083102386 -s 6 -d -1 -p AODV -e 48 -c 2 -a 0 -i 0 -k RTR
r -t 0.084140994 -s 3 -d -1 -p AODV -e 48 -c 2 -a 0 -i 0 -k RTR
r -t 0.084141138 -s 7 -d -1 -p AODV -e 48 -c 2 -a 0 -i 0 -k RTR
r -t 0.100104546 -s 4 -d 4 -p tcp -e 1540 -c 2 -a 0 -i 10 -k AGT
+ -t 0.100104546 -s 4 -d -1 -p ack -e 40 -c 2 -a 0 -i 12 -k AGT 
- -t 0.100104546 -s 4 -d -1 -p ack -e 40 -c 2 -a 0 -i 12 -k AGT
h -t 0.100104546 -s 4 -d -1 -p ack -e 40 -c 2 -a 0 -i 12 -k AGT
+ -t 0.100104546 -s 4 -d 0 -p ack -e 40 -c 2 -a 0 -i 12 -k RTR 
- -t 0.100104546 -s 4 -d 0 -p ack -e 40 -c 2 -a 0 -i 12 -k RTR
h -t 0.100104546 -s 4 -d 0 -p ack -e 40 -c 2 -a 0 -i 12 -k RTR
r -t 0.102030693 -s 0 -d 0 -p ack -e 40 -c 2 -a 0 -i 8 -k AGT
+ -t 0.102030693 -s 0 -d -1 -p tcp -e 1540 -c 2 -a 0 -i 13 -k AGT 
- -t 0.102030693 -s 0 -d -1 -p tcp -e 1540 -c 2 -a 0 -i 13 -k AGT
h -t 0.102030693 -s 0 -d -1 -p tcp -e 1540 -c 2 -a 0 -i 13 -k AGT
+ -t 0.102030693 -s 0 -d -1 -p tcp -e 1540 -c 2 -a 0 -i 14 -k AGT 
- -t 0.102030693 -s 0 -d -1 -p tcp -e 1540 -c 2 -a 0 -i 14 -k AGT
h -t 0.102030693 -s 0 -d -1 -p tcp -e 1540 -c 2 -a 0 -i 14 -k AGT
+ -t 0.102030693 -s 0 -d 4 -p tcp -e 1540 -c 2 -a 0 -i 13 -k RTR 
- -t 0.102030693 -s 0 -d 4 -p tcp -e 1540 -c 2 -a 0 -i 13 -k RTR
h -t 0.102030693 -s 0 -d 4 -p tcp -e 1540 -c 2 -a 0 -i 13 -k RTR
+ -t 0.102030693 -s 0 -d 4 -p tcp -e 1540 -c 2 -a 0 -i 14 -k RTR 
- -t 0.102030693 -s 0 -d 4 -p tcp -e 1540 -c 2 -a 0 -i 14 -k RTR
h -t 0.102030693 -s 0 -d 4 -p tcp -e 1540 -c 2 -a 0 -i 14 -k RTR
r -t 0.103997555 -s 0 -d 0 -p ack -e 40 -c 2 -a 0 -i 9 -k AGT
+ -t 0.103997555 -s 0 -d -1 -p tcp -e 1540 -c 2 -a 0 -i 15 -k AGT 
- -t 0.103997555 -s 0 -d -1 -p tcp -e 1540 -c 2 -a 0 -i 15 -k AGT
h -t 0.103997555 -s 0 -d -1 -p tcp -e 1540 -c 2 -a 0 -i 15 -k AGT
+ -t 0.103997555 -s 0 -d -1 -p tcp -e 1540 -c 2 -a 0 -i 16 -k AGT 
- -t 0.103997555 -s 0 -d -1 -p tcp -e 1540 -c 2 -a 0 -i 16 -k AGT
h -t 0.103997555 -s 0 -d -1 -p tcp -e 1540 -c 2 -a 0 -i 16 -k AGT
+ -t 0.103997555 -s 0 -d 4 -p tcp -e 1540 -c 2 -a 0 -i 15 -k RTR 
- -t 0.103997555 -s 0 -d 4 -p tcp -e 1540 -c 2 -a 0 -i 15 -k RTR
h -t 0.103997555 -s 0 -d 4 -p tcp -e 1540 -c 2 -a 0 -i 15 -k RTR
+ -t 0.103997555 -s 0 -d 4 -p tcp -e 1540 -c 2 -a 0 -i 16 -k RTR 
- -t 0.103997555 -s 0 -d 4 -p tcp -e 1540 -c 2 -a 0 -i 16 -k RTR
h -t 0.103997555 -s 0 -d 4 -p tcp -e 1540 -c 2 -a 0 -i 16 -k RTR
r -t 0.105904417 -s 0 -d 0 -p ack -e 40 -c 2 -a 0 -i 12 -k AGT
+ -t 0.105904417 -s 0 -d -1 -p tcp -e 1540 -c 2 -a 0 -i 17 -k AGT 
- -t 0.105904417 -s 0 -d -1 -p tcp -e 1540 -c 2 -a 0 -i 17 -k AGT
h -t 0.105904417 -s 0 -d -1 -p tcp -e 1540 -c 2 -a 0 -i 17 -k AGT
+ -t 0.105904417 -s 0 -d -1 -p tcp -e 1540 -c 2 -a 0 -i 18 -k AGT 
- -t 0.105904417 -s 0 -d -1 -p tcp -e 1540 -c 2 -a 0 -i 18 -k AGT
h -t 0.105904417 -s 0 -d -1 -p tcp -e 1540 -c 2 -a 0 -i 18 -k AGT
+ -t 0.105904417 -s 0 -d 4 -p tcp -e 1540 -c 2 -a 0 -i 17 -k RTR 
- -t 0.105904417 -s 0 -d 4 -p tcp -e 1540 -c 2 -a 0 -i 17 -k RTR
h -t 0.105904417 -s 0 -d 4 -p tcp -e 1540 -c 2 -a 0 -i 17 -k RTR
+ -t 0.105904417 -s 0 -d 4 -p tcp -e 1540 -c 2 -a 0 -i 18 -k RTR 
- -t 0.105904417 -s 0 -d 4 -p tcp -e 1540 -c 2 -a 0 -i 18 -k RTR
h -t 0.105904417 -s 0 -d 4 -p tcp -e 1540 -c 2 -a 0 -i 18 -k RTR
r -t 0.119770564 -s 4 -d 4 -p tcp -e 1540 -c 2 -a 0 -i 11 -k AGT
+ -t 0.119770564 -s 4 -d -1 -p ack -e 40 -c 2 -a 0 -i 19 -k AGT 
- -t 0.119770564 -s 4 -d -1 -p ack -e 40 -c 2 -a 0 -i 19 -k AGT
h -t 0.119770564 -s 4 -d -1 -p ack -e 40 -c 2 -a 0 -i 19 -k AGT
+ -t 0.119770564 -s 4 -d 0 -p ack -e 40 -c 2 -a 0 -i 19 -k RTR 
- -t 0.119770564 -s 4 -d 0 -p ack -e 40 -c 2 -a 0 -i 19 -k RTR
h -t 0.119770564 -s 4 -d 0 -p ack -e 40 -c 2 -a 0 -i 19 -k RTR
r -t 0.133797426 -s 4 -d 4 -p tcp -e 1540 -c 2 -a 0 -i 13 -k AGT
+ -t 0.133797426 -s 4 -d -1 -p ack -e 40 -c 2 -a 0 -i 20 -k AGT 
- -t 0.133797426 -s 4 -d -1 -p ack -e 40 -c 2 -a 0 -i 20 -k AGT
h -t 0.133797426 -s 4 -d -1 -p ack -e 40 -c 2 -a 0 -i 20 -k AGT
+ -t 0.133797426 -s 4 -d 0 -p ack -e 40 -c 2 -a 0 -i 20 -k RTR 
- -t 0.133797426 -s 4 -d 0 -p ack -e 40 -c 2 -a 0 -i 20 -k RTR
h -t 0.133797426 -s 4 -d 0 -p ack -e 40 -c 2 -a 0 -i 20 -k RTR
r -t 0.135663573 -s 0 -d 0 -p ack -e 40 -c 2 -a 0 -i 19 -k AGT
+ -t 0.135663573 -s 0 -d -1 -p tcp -e 1540 -c 2 -a 0 -i 21 -k AGT 
- -t 0.135663573 -s 0 -d -1 -p tcp -e 1540 -c 2 -a 0 -i 21 -k AGT
h -t 0.135663573 -s 0 -d -1 -p tcp -e 1540 -c 2 -a 0 -i 21 -k AGT
+ -t 0.135663573 -s 0 -d -1 -p tcp -e 1540 -c 2 -a 0 -i 22 -k AGT 
- -t 0.135663573 -s 0 -d -1 -p tcp -e 1540 -c 2 -a 0 -i 22 -k AGT
h -t 0.135663573 -s 0 -d -1 -p tcp -e 1540 -c 2 -a 0 -i 22 -k AGT
+ -t 0.135663573 -s 0 -d 4 -p tcp -e 1540 -c 2 -a 0 -i 21 -k RTR 
- -t 0.135663573 -s 0 -d 4 -p tcp -e 1540 -c 2 -a 0 -i 21 -k RTR
h -t 0.135663573 -s 0 -d 4 -p tcp -e 1540 -c 2 -a 0 -i 21 -k RTR
+ -t 0.135663573 -s 0 -d 4 -p tcp -e 1540 -c 2 -a 0 -i 22 -k RTR 
- -t 0.135663573 -s 0 -d 4 -p tcp -e 1540 -c 2 -a 0 -i 22 -k RTR
h -t 0.135663573 -s 0 -d 4 -p tcp -e 1540 -c 2 -a 0 -i 22 -k RTR
r -t 0.149549720 -s 4 -d 4 -p tcp -e 1540 -c 2 -a 0 -i 14 -k AGT
+ -t 0.149549720 -s 4 -d -1 -p ack -e 40 -c 2 -a 0 -i 23 -k AGT 
- -t 0.149549720 -s 4 -d -1 -p ack -e 40 -c 2 -a 0 -i 23 -k AGT
h -t 0.149549720 -s 4 -d -1 -p ack -e 40 -c 2 -a 0 -i 23 -k AGT
+ -t 0.149549720 -s 4 -d 0 -p ack -e 40 -c 2 -a 0 -i 23 -k RTR 
- -t 0.149549720 -s 4 -d 0 -p ack -e 40 -c 2 -a 0 -i 23 -k RTR
h -t 0.149549720 -s 4 -d 0 -p ack -e 40 -c 2 -a 0 -i 23 -k RTR
r -t 0.163596582 -s 4 -d 4 -p tcp -e 1540 -c 2 -a 0 -i 15 -k AGT
+ -t 0.163596582 -s 4 -d -1 -p ack -e 40 -c 2 -a 0 -i 24 -k AGT 
- -t 0.163596582 -s 4 -d -1 -p ack -e 40 -c 2 -a 0 -i 24 -k AGT
h -t 0.163596582 -s 4 -d -1 -p ack -e 40 -c 2 -a 0 -i 24 -k AGT
+ -t 0.163596582 -s 4 -d 0 -p ack -e 40 -c 2 -a 0 -i 24 -k RTR 
- -t 0.163596582 -s 4 -d 0 -p ack -e 40 -c 2 -a 0 -i 24 -k RTR
h -t 0.163596582 -s 4 -d 0 -p ack -e 40 -c 2 -a 0 -i 24 -k RTR
r -t 0.177623444 -s 4 -d 4 -p tcp -e 1540 -c 2 -a 0 -i 16 -k AGT
+ -t 0.177623444 -s 4 -d -1 -p ack -e 40 -c 2 -a 0 -i 25 -k AGT 
- -t 0.177623444 -s 4 -d -1 -p ack -e 40 -c 2 -a 0 -i 25 -k AGT
h -t 0.177623444 -s 4 -d -1 -p ack -e 40 -c 2 -a 0 -i 25 -k AGT
+ -t 0.177623444 -s 4 -d 0 -p ack -e 40 -c 2 -a 0 -i 25 -k RTR 
- -t 0.177623444 -s 4 -d 0 -p ack -e 40 -c 2 -a 0 -i 25 -k RTR
h -t 0.177623444 -s 4 -d 0 -p ack -e 40 -c 2 -a 0 -i 25 -k RTR
r -t 0.179489591 -s 0 -d 0 -p ack -e 40 -c 2 -a 0 -i 20 -k AGT
+ -t 0.179489591 -s 0 -d -1 -p tcp -e 1540 -c 2 -a 0 -i 26 -k AGT 
- -t 0.179489591 -s 0 -d -1 -p tcp -e 1540 -c 2 -a 0 -i 26 -k AGT
h -t 0.179489591 -s 0 -d -1 -p tcp -e 1540 -c 2 -a 0 -i 26 -k AGT
+ -t 0.179489591 -s 0 -d -1 -p tcp -e 1540 -c 2 -a 0 -i 27 -k AGT 
- -t 0.179489591 -s 0 -d -1 -p tcp -e 1540 -c 2 -a 0 -i 27 -k AGT
h -t 0.179489591 -s 0 -d -1 -p tcp -e 1540 -c 2 -a 0 -i 27 -k AGT
+ -t 0.179489591 -s 0 -d 4 -p tcp -e 1540 -c 2 -a 0 -i 26 -k RTR 
- -t 0.179489591 -s 0 -d 4 -p tcp -e 1540 -c 2 -a 0 -i 26 -k RTR
h -t 0.179489591 -s 0 -d 4 -p tcp -e 1540 -c 2 -a 0 -i 26 -k RTR
+ -t 0.179489591 -s 0 -d 4 -p tcp -e 1540 -c 2 -a 0 -i 27 -k RTR 
- -t 0.179489591 -s 0 -d 4 -p tcp -e 1540 -c 2 -a 0 -i 27 -k RTR
h -t 0.179489591 -s 0 -d 4 -p tcp -e 1540 -c 2 -a 0 -i 27 -k RTR
r -t 0.181376453 -s 0 -d 0 -p ack -e 40 -c 2 -a 0 -i 23 -k AGT
+ -t 0.181376453 -s 0 -d -1 -p tcp -e 1540 -c 2 -a 0 -i 28 -k AGT 
- -t 0.181376453 -s 0 -d -1 -p tcp -e 1540 -c 2 -a 0 -i 28 -k AGT
h -t 0.181376453 -s 0 -d -1 -p tcp -e 1540 -c 2 -a 0 -i 28 -k AGT
+ -t 0.181376453 -s 0 -d -1 -p tcp -e 1540 -c 2 -a 0 -i 29 -k AGT 
- -t 0.181376453 -s 0 -d -1 -p tcp -e 1540 -c 2 -a 0 -i 29 -k AGT
h -t 0.181376453 -s 0 -d -1 -p tcp -e 1540 -c 2 -a 0 -i 29 -k AGT
+ -t 0.181376453 -s 0 -d 4 -p tcp -e 1540 -c 2 -a 0 -i 28 -k RTR 
- -t 0.181376453 -s 0 -d 4 -p tcp -e 1540 -c 2 -a 0 -i 28 -k RTR
h -t 0.181376453 -s 0 -d 4 -p tcp -e 1540 -c 2 -a 0 -i 28 -k RTR
+ -t 0.181376453 -s 0 -d 4 -p tcp -e 1540 -c 2 -a 0 -i 29 -k RTR 
- -t 0.181376453 -s 0 -d 4 -p tcp -e 1540 -c 2 -a 0 -i 29 -k RTR
h -t 0.181376453 -s 0 -d 4 -p tcp -e 1540 -c 2 -a 0 -i 29 -k RTR
r -t 0.183323316 -s 0 -d 0 -p ack -e 40 -c 2 -a 0 -i 24 -k AGT
+ -t 0.183323316 -s 0 -d -1 -p tcp -e 1540 -c 2 -a 0 -i 30 -k AGT 
- -t 0.183323316 -s 0 -d -1 -p tcp -e 1540 -c 2 -a 0 -i 30 -k AGT
h -t 0.183323316 -s 0 -d -1 -p tcp -e 1540 -c 2 -a 0 -i 30 -k AGT
+ -t 0.183323316 -s 0 -d -1 -p tcp -e 1540 -c 2 -a 0 -i 31 -k AGT 
- -t 0.183323316 -s 0 -d -1 -p tcp -e 1540 -c 2 -a 0 -i 31 -k AGT
h -t 0.183323316 -s 0 -d -1 -p tcp -e 1540 -c 2 -a 0 -i 31 -k AGT
+ -t 0.183323316 -s 0 -d 4 -p tcp -e 1540 -c 2 -a 0 -i 30 -k RTR 
- -t 0.183323316 -s 0 -d 4 -p tcp -e 1540 -c 2 -a 0 -i 30 -k RTR
h -t 0.183323316 -s 0 -d 4 -p tcp -e 1540 -c 2 -a 0 -i 30 -k RTR
+ -t 0.183323316 -s 0 -d 4 -p tcp -e 1540 -c 2 -a 0 -i 31 -k RTR 
- -t 0.183323316 -s 0 -d 4 -p tcp -e 1540 -c 2 -a 0 -i 31 -k RTR
h -t 0.183323316 -s 0 -d 4 -p tcp -e 1540 -c 2 -a 0 -i 31 -k RTR
r -t 0.185490178 -s 0 -d 0 -p ack -e 40 -c 2 -a 0 -i 25 -k AGT
+ -t 0.185490178 -s 0 -d -1 -p tcp -e 1540 -c 2 -a 0 -i 32 -k AGT 
- -t 0.185490178 -s 0 -d -1 -p tcp -e 1540 -c 2 -a 0 -i 32 -k AGT
h -t 0.185490178 -s 0 -d -1 -p tcp -e 1540 -c 2 -a 0 -i 32 -k AGT
+ -t 0.185490178 -s 0 -d -1 -p tcp -e 1540 -c 2 -a 0 -i 33 -k AGT 
- -t 0.185490178 -s 0 -d -1 -p tcp -e 1540 -c 2 -a 0 -i 33 -k AGT
h -t 0.185490178 -s 0 -d -1 -p tcp -e 1540 -c 2 -a 0 -i 33 -k AGT
+ -t 0.185490178 -s 0 -d 4 -p tcp -e 1540 -c 2 -a 0 -i 32 -k RTR 
- -t 0.185490178 -s 0 -d 4 -p tcp -e 1540 -c 2 -a 0 -i 32 -k RTR
h -t 0.185490178 -s 0 -d 4 -p tcp -e 1540 -c 2 -a 0 -i 32 -k RTR
+ -t 0.185490178 -s 0 -d 4 -p tcp -e 1540 -c 2 -a 0 -i 33 -k RTR 
- -t 0.185490178 -s 0 -d 4 -p tcp -e 1540 -c 2 -a 0 -i 33 -k RTR
h -t 0.185490178 -s 0 -d 4 -p tcp -e 1540 -c 2 -a 0 -i 33 -k RTR
r -t 0.199336325 -s 4 -d 4 -p tcp -e 1540 -c 2 -a 0 -i 17 -k AGT
+ -t 0.199336325 -s 4 -d -1 -p ack -e 40 -c 2 -a 0 -i 34 -k AGT 
- -t 0.199336325 -s 4 -d -1 -p ack -e 40 -c 2 -a 0 -i 34 -k AGT
h -t 0.199336325 -s 4 -d -1 -p ack -e 40 -c 2 -a 0 -i 34 -k AGT
+ -t 0.199336325 -s 4 -d 0 -p ack -e 40 -c 2 -a 0 -i 34 -k RTR 
- -t 0.199336325 -s 4 -d 0 -p ack -e 40 -c 2 -a 0 -i 34 -k RTR
h -t 0.199336325 -s 4 -d 0 -p ack -e 40 -c 2 -a 0 -i 34 -k RTR
r -t 0.213443187 -s 4 -d 4 -p tcp -e 1540 -c 2 -a 0 -i 18 -k AGT
+ -t 0.213443187 -s 4 -d -1 -p ack -e 40 -c 2 -a 0 -i 35 -k AGT 
- -t 0.213443187 -s 4 -d -1 -p ack -e 40 -c 2 -a 0 -i 35 -k AGT
h -t 0.213443187 -s 4 -d -1 -p ack -e 40 -c 2 -a 0 -i 35 -k AGT
+ -t 0.213443187 -s 4 -d 0 -p ack -e 40 -c 2 -a 0 -i 35 -k RTR 
- -t 0.213443187 -s 4 -d 0 -p ack -e 40 -c 2 -a 0 -i 35 -k RTR
h -t 0.213443187 -s 4 -d 0 -p ack -e 40 -c 2 -a 0 -i 35 -k RTR
r -t 0.227450050 -s 4 -d 4 -p tcp -e 1540 -c 2 -a 0 -i 21 -k AGT
+ -t 0.227450050 -s 4 -d -1 -p ack -e 40 -c 2 -a 0 -i 36 -k AGT 
- -t 0.227450050 -s 4 -d -1 -p ack -e 40 -c 2 -a 0 -i 36 -k AGT
h -t 0.227450050 -s 4 -d -1 -p ack -e 40 -c 2 -a 0 -i 36 -k AGT
+ -t 0.227450050 -s 4 -d 0 -p ack -e 40 -c 2 -a 0 -i 36 -k RTR 
- -t 0.227450050 -s 4 -d 0 -p ack -e 40 -c 2 -a 0 -i 36 -k RTR
h -t 0.227450050 -s 4 -d 0 -p ack -e 40 -c 2 -a 0 -i 36 -k RTR
r -t 0.229316196 -s 0 -d 0 -p ack -e 40 -c 2 -a 0 -i 34 -k AGT
+ -t 0.229316196 -s 0 -d -1 -p tcp -e 1540 -c 2 -a 0 -i 37 -k AGT 
- -t 0.229316196 -s 0 -d -1 -p tcp -e 1540 -c 2 -a 0 -i 37 -k AGT
h -t 0.229316196 -s 0 -d -1 -p tcp -e 1540 -c 2 -a 0 -i 37 -k AGT
+ -t 0.229316196 -s 0 -d -1 -p tcp -e 1540 -c 2 -a 0 -i 38 -k AGT 
- -t 0.229316196 -s 0 -d -1 -p tcp -e 1540 -c 2 -a 0 -i 38 -k AGT
h -t 0.229316196 -s 0 -d -1 -p tcp -e 1540 -c 2 -a 0 -i 38 -k AGT
+ -t 0.229316196 -s 0 -d 4 -p tcp -e 1540 -c 2 -a 0 -i 37 -k RTR 
- -t 0.229316196 -s 0 -d 4 -p tcp -e 1540 -c 2 -a 0 -i 37 -k RTR
h -t 0.229316196 -s 0 -d 4 -p tcp -e 1540 -c 2 -a 0 -i 37 -k RTR
+ -t 0.229316196 -s 0 -d 4 -p tcp -e 1540 -c 2 -a 0 -i 38 -k RTR 
- -t 0.229316196 -s 0 -d 4 -p tcp -e 1540 -c 2 -a 0 -i 38 -k RTR
h -t 0.229316196 -s 0 -d 4 -p tcp -e 1540 -c 2 -a 0 -i 38 -k RTR
r -t 0.243382343 -s 4 -d 4 -p tcp -e 1540 -c 2 -a 0 -i 22 -k AGT
+ -t 0.243382343 -s 4 -d -1 -p ack -e 40 -c 2 -a 0 -i 39 -k AGT 
- -t 0.243382343 -s 4 -d -1 -p ack -e 40 -c 2 -a 0 -i 39 -k AGT
h -t 0.243382343 -s 4 -d -1 -p ack -e 40 -c 2 -a 0 -i 39 -k AGT
+ -t 0.243382343 -s 4 -d 0 -p ack -e 40 -c 2 -a 0 -i 39 -k RTR 
- -t 0.243382343 -s 4 -d 0 -p ack -e 40 -c 2 -a 0 -i 39 -k RTR
h -t 0.243382343 -s 4 -d 0 -p ack -e 40 -c 2 -a 0 -i 39 -k RTR
r -t 0.257209205 -s 4 -d 4 -p tcp -e 1540 -c 2 -a 0 -i 26 -k AGT
+ -t 0.257209205 -s 4 -d -1 -p ack -e 40 -c 2 -a 0 -i 40 -k AGT 
- -t 0.257209205 -s 4 -d -1 -p ack -e 40 -c 2 -a 0 -i 40 -k AGT
h -t 0.257209205 -s 4 -d -1 -p ack -e 40 -c 2 -a 0 -i 40 -k AGT
+ -t 0.257209205 -s 4 -d 0 -p ack -e 40 -c 2 -a 0 -i 40 -k RTR 
- -t 0.257209205 -s 4 -d 0 -p ack -e 40 -c 2 -a 0 -i 40 -k RTR
h -t 0.257209205 -s 4 -d 0 -p ack -e 40 -c 2 -a 0 -i 40 -k RTR
r -t 0.271256068 -s 4 -d 4 -p tcp -e 1540 -c 2 -a 0 -i 27 -k AGT
+ -t 0.271256068 -s 4 -d -1 -p ack -e 40 -c 2 -a 0 -i 41 -k AGT 
- -t 0.271256068 -s 4 -d -1 -p ack -e 40 -c 2 -a 0 -i 41 -k AGT
h -t 0.271256068 -s 4 -d -1 -p ack -e 40 -c 2 -a 0 -i 41 -k AGT
+ -t 0.271256068 -s 4 -d 0 -p ack -e 40 -c 2 -a 0 -i 41 -k RTR 
- -t 0.271256068 -s 4 -d 0 -p ack -e 40 -c 2 -a 0 -i 41 -k RTR
h -t 0.271256068 -s 4 -d 0 -p ack -e 40 -c 2 -a 0 -i 41 -k RTR
r -t 0.273102214 -s 0 -d 0 -p ack -e 40 -c 2 -a 0 -i 35 -k AGT
+ -t 0.273102214 -s 0 -d -1 -p tcp -e 1540 -c 2 -a 0 -i 42 -k AGT 
- -t 0.273102214 -s 0 -d -1 -p tcp -e 1540 -c 2 -a 0 -i 42 -k AGT
h -t 0.273102214 -s 0 -d -1 -p tcp -e 1540 -c 2 -a 0 -i 42 -k AGT
+ -t 0.273102214 -s 0 -d -1 -p tcp -e 1540 -c 2 -a 0 -i 43 -k AGT 
- -t 0.273102214 -s 0 -d -1 -p tcp -e 1540 -c 2 -a 0 -i 43 -k AGT
h -t 0.273102214 -s 0 -d -1 -p tcp -e 1540 -c 2 -a 0 -i 43 -k AGT
+ -t 0.273102214 -s 0 -d 4 -p tcp -e 1540 -c 2 -a 0 -i 42 -k RTR 
- -t 0.273102214 -s 0 -d 4 -p tcp -e 1540 -c 2 -a 0 -i 42 -k RTR
h -t 0.273102214 -s 0 -d 4 -p tcp -e 1540 -c 2 -a 0 -i 42 -k RTR
+ -t 0.273102214 -s 0 -d 4 -p tcp -e 1540 -c 2 -a 0 -i 43 -k RTR 
- -t 0.273102214 -s 0 -d 4 -p tcp -e 1540 -c 2 -a 0 -i 43 -k RTR
h -t 0.273102214 -s 0 -d 4 -p tcp -e 1540 -c 2 -a 0 -i 43 -k RTR
r -t 0.275089077 -s 0 -d 0 -p ack -e 40 -c 2 -a 0 -i 36 -k AGT
+ -t 0.275089077 -s 0 -d -1 -p tcp -e 1540 -c 2 -a 0 -i 44 -k AGT 
- -t 0.275089077 -s 0 -d -1 -p tcp -e 1540 -c 2 -a 0 -i 44 -k AGT
h -t 0.275089077 -s 0 -d -1 -p tcp -e 1540 -c 2 -a 0 -i 44 -k AGT
+ -t 0.275089077 -s 0 -d -1 -p tcp -e 1540 -c 2 -a 0 -i 45 -k AGT 
- -t 0.275089077 -s 0 -d -1 -p tcp -e 1540 -c 2 -a 0 -i 45 -k AGT
h -t 0.275089077 -s 0 -d -1 -p tcp -e 1540 -c 2 -a 0 -i 45 -k AGT
+ -t 0.275089077 -s 0 -d 4 -p tcp -e 1540 -c 2 -a 0 -i 44 -k RTR 
- -t 0.275089077 -s 0 -d 4 -p tcp -e 1540 -c 2 -a 0 -i 44 -k RTR
h -t 0.275089077 -s 0 -d 4 -p tcp -e 1540 -c 2 -a 0 -i 44 -k RTR
+ -t 0.275089077 -s 0 -d 4 -p tcp -e 1540 -c 2 -a 0 -i 45 -k RTR 
- -t 0.275089077 -s 0 -d 4 -p tcp -e 1540 -c 2 -a 0 -i 45 -k RTR
h -t 0.275089077 -s 0 -d 4 -p tcp -e 1540 -c 2 -a 0 -i 45 -k RTR
r -t 0.289055223 -s 4 -d 4 -p tcp -e 1540 -c 2 -a 0 -i 28 -k AGT
+ -t 0.289055223 -s 4 -d -1 -p ack -e 40 -c 2 -a 0 -i 46 -k AGT 
- -t 0.289055223 -s 4 -d -1 -p ack -e 40 -c 2 -a 0 -i 46 -k AGT
h -t 0.289055223 -s 4 -d -1 -p ack -e 40 -c 2 -a 0 -i 46 -k AGT
+ -t 0.289055223 -s 4 -d 0 -p ack -e 40 -c 2 -a 0 -i 46 -k RTR 
- -t 0.289055223 -s 4 -d 0 -p ack -e 40 -c 2 -a 0 -i 46 -k RTR
h -t 0.289055223 -s 4 -d 0 -p ack -e 40 -c 2 -a 0 -i 46 -k RTR
r -t 0.303828086 -s 4 -d 4 -p tcp -e 1540 -c 2 -a 0 -i 29 -k AGT
+ -t 0.303828086 -s 4 -d -1 -p ack -e 40 -c 2 -a 0 -i 47 -k AGT 
- -t 0.303828086 -s 4 -d -1 -p ack -e 40 -c 2 -a 0 -i 47 -k AGT
h -t 0.303828086 -s 4 -d -1 -p ack -e 40 -c 2 -a 0 -i 47 -k AGT
+ -t 0.303828086 -s 4 -d 0 -p ack -e 40 -c 2 -a 0 -i 47 -k RTR 
- -t 0.303828086 -s 4 -d 0 -p ack -e 40 -c 2 -a 0 -i 47 -k RTR
h -t 0.303828086 -s 4 -d 0 -p ack -e 40 -c 2 -a 0 -i 47 -k RTR
r -t 0.317894948 -s 4 -d 4 -p tcp -e 1540 -c 2 -a 0 -i 30 -k AGT
+ -t 0.317894948 -s 4 -d -1 -p ack -e 40 -c 2 -a 0 -i 48 -k AGT 
- -t 0.317894948 -s 4 -d -1 -p ack -e 40 -c 2 -a 0 -i 48 -k AGT
h -t 0.317894948 -s 4 -d -1 -p ack -e 40 -c 2 -a 0 -i 48 -k AGT
+ -t 0.317894948 -s 4 -d 0 -p ack -e 40 -c 2 -a 0 -i 48 -k RTR 
- -t 0.317894948 -s 4 -d 0 -p ack -e 40 -c 2 -a 0 -i 48 -k RTR
h -t 0.317894948 -s 4 -d 0 -p ack -e 40 -c 2 -a 0 -i 48 -k RTR
r -t 0.319781095 -s 0 -d 0 -p ack -e 40 -c 2 -a 0 -i 39 -k AGT
+ -t 0.319781095 -s 0 -d -1 -p tcp -e 1540 -c 2 -a 0 -i 49 -k AGT 
- -t 0.319781095 -s 0 -d -1 -p tcp -e 1540 -c 2 -a 0 -i 49 -k AGT
h -t 0.319781095 -s 0 -d -1 -p tcp -e 1540 -c 2 -a 0 -i 49 -k AGT
+ -t 0.319781095 -s 0 -d -1 -p tcp -e 1540 -c 2 -a 0 -i 50 -k AGT 
- -t 0.319781095 -s 0 -d -1 -p tcp -e 1540 -c 2 -a 0 -i 50 -k AGT
h -t 0.319781095 -s 0 -d -1 -p tcp -e 1540 -c 2 -a 0 -i 50 -k AGT
+ -t 0.319781095 -s 0 -d 4 -p tcp -e 1540 -c 2 -a 0 -i 49 -k RTR 
- -t 0.319781095 -s 0 -d 4 -p tcp -e 1540 -c 2 -a 0 -i 49 -k RTR
h -t 0.319781095 -s 0 -d 4 -p tcp -e 1540 -c 2 -a 0 -i 49 -k RTR
+ -t 0.319781095 -s 0 -d 4 -p tcp -e 1540 -c 2 -a 0 -i 50 -k RTR 
- -t 0.319781095 -s 0 -d 4 -p tcp -e 1540 -c 2 -a 0 -i 50 -k RTR
h -t 0.319781095 -s 0 -d 4 -p tcp -e 1540 -c 2 -a 0 -i 50 -k RTR
r -t 0.333847242 -s 4 -d 4 -p tcp -e 1540 -c 2 -a 0 -i 31 -k AGT
+ -t 0.333847242 -s 4 -d -1 -p ack -e 40 -c 2 -a 0 -i 51 -k AGT 
- -t 0.333847242 -s 4 -d -1 -p ack -e 40 -c 2 -a 0 -i 51 -k AGT
h -t 0.333847242 -s 4 -d -1 -p ack -e 40 -c 2 -a 0 -i 51 -k AGT
+ -t 0.333847242 -s 4 -d 0 -p ack -e 40 -c 2 -a 0 -i 51 -k RTR 
- -t 0.333847242 -s 4 -d 0 -p ack -e 40 -c 2 -a 0 -i 51 -k RTR
h -t 0.333847242 -s 4 -d 0 -p ack -e 40 -c 2 -a 0 -i 51 -k RTR
r -t 0.347694104 -s 4 -d 4 -p tcp -e 1540 -c 2 -a 0 -i 32 -k AGT
+ -t 0.347694104 -s 4 -d -1 -p ack -e 40 -c 2 -a 0 -i 52 -k AGT 
- -t 0.347694104 -s 4 -d -1 -p ack -e 40 -c 2 -a 0 -i 52 -k AGT
h -t 0.347694104 -s 4 -d -1 -p ack -e 40 -c 2 -a 0 -i 52 -k AGT
+ -t 0.347694104 -s 4 -d 0 -p ack -e 40 -c 2 -a 0 -i 52 -k RTR 
- -t 0.347694104 -s 4 -d 0 -p ack -e 40 -c 2 -a 0 -i 52 -k RTR
h -t 0.347694104 -s 4 -d 0 -p ack -e 40 -c 2 -a 0 -i 52 -k RTR
r -t 0.349540251 -s 0 -d 0 -p ack -e 40 -c 2 -a 0 -i 40 -k AGT
+ -t 0.349540251 -s 0 -d -1 -p tcp -e 1540 -c 2 -a 0 -i 53 -k AGT 
- -t 0.349540251 -s 0 -d -1 -p tcp -e 1540 -c 2 -a 0 -i 53 -k AGT
h -t 0.349540251 -s 0 -d -1 -p tcp -e 1540 -c 2 -a 0 -i 53 -k AGT
+ -t 0.349540251 -s 0 -d -1 -p tcp -e 1540 -c 2 -a 0 -i 54 -k AGT 
- -t 0.349540251 -s 0 -d -1 -p tcp -e 1540 -c 2 -a 0 -i 54 -k AGT
h -t 0.349540251 -s 0 -d -1 -p tcp -e 1540 -c 2 -a 0 -i 54 -k AGT
+ -t 0.349540251 -s 0 -d 4 -p tcp -e 1540 -c 2 -a 0 -i 53 -k RTR 
- -t 0.349540251 -s 0 -d 4 -p tcp -e 1540 -c 2 -a 0 -i 53 -k RTR
h -t 0.349540251 -s 0 -d 4 -p tcp -e 1540 -c 2 -a 0 -i 53 -k RTR
+ -t 0.349540251 -s 0 -d 4 -p tcp -e 1540 -c 2 -a 0 -i 54 -k RTR 
- -t 0.349540251 -s 0 -d 4 -p tcp -e 1540 -c 2 -a 0 -i 54 -k RTR
h -t 0.349540251 -s 0 -d 4 -p tcp -e 1540 -c 2 -a 0 -i 54 -k RTR
r -t 0.351607113 -s 0 -d 0 -p ack -e 40 -c 2 -a 0 -i 41 -k AGT
+ -t 0.351607113 -s 0 -d -1 -p tcp -e 1540 -c 2 -a 0 -i 55 -k AGT 
- -t 0.351607113 -s 0 -d -1 -p tcp -e 1540 -c 2 -a 0 -i 55 -k AGT
h -t 0.351607113 -s 0 -d -1 -p tcp -e 1540 -c 2 -a 0 -i 55 -k AGT
+ -t 0.351607113 -s 0 -d -1 -p tcp -e 1540 -c 2 -a 0 -i 56 -k AGT 
- -t 0.351607113 -s 0 -d -1 -p tcp -e 1540 -c 2 -a 0 -i 56 -k AGT
h -t 0.351607113 -s 0 -d -1 -p tcp -e 1540 -c 2 -a 0 -i 56 -k AGT
+ -t 0.351607113 -s 0 -d 4 -p tcp -e 1540 -c 2 -a 0 -i 55 -k RTR 
- -t 0.351607113 -s 0 -d 4 -p tcp -e 1540 -c 2 -a 0 -i 55 -k RTR
h -t 0.351607113 -s 0 -d 4 -p tcp -e 1540 -c 2 -a 0 -i 55 -k RTR
+ -t 0.351607113 -s 0 -d 4 -p tcp -e 1540 -c 2 -a 0 -i 56 -k RTR 
- -t 0.351607113 -s 0 -d 4 -p tcp -e 1540 -c 2 -a 0 -i 56 -k RTR
h -t 0.351607113 -s 0 -d 4 -p tcp -e 1540 -c 2 -a 0 -i 56 -k RTR
r -t 0.353553975 -s 0 -d 0 -p ack -e 40 -c 2 -a 0 -i 46 -k AGT
+ -t 0.353553975 -s 0 -d -1 -p tcp -e 1540 -c 2 -a 0 -i 57 -k AGT 
- -t 0.353553975 -s 0 -d -1 -p tcp -e 1540 -c 2 -a 0 -i 57 -k AGT
h -t 0.353553975 -s 0 -d -1 -p tcp -e 1540 -c 2 -a 0 -i 57 -k AGT
+ -t 0.353553975 -s 0 -d -1 -p tcp -e 1540 -c 2 -a 0 -i 58 -k AGT 
- -t 0.353553975 -s 0 -d -1 -p tcp -e 1540 -c 2 -a 0 -i 58 -k AGT
h -t 0.353553975 -s 0 -d -1 -p tcp -e 1540 -c 2 -a 0 -i 58 -k AGT
+ -t 0.353553975 -s 0 -d 4 -p tcp -e 1540 -c 2 -a 0 -i 57 -k RTR 
- -t 0.353553975 -s 0 -d 4 -p tcp -e 1540 -c 2 -a 0 -i 57 -k RTR
h -t 0.353553975 -s 0 -d 4 -p tcp -e 1540 -c 2 -a 0 -i 57 -k RTR
+ -t 0.353553975 -s 0 -d 4 -p tcp -e 1540 -c 2 -a 0 -i 58 -k RTR 
- -t 0.353553975 -s 0 -d 4 -p tcp -e 1540 -c 2 -a 0 -i 58 -k RTR
h -t 0.353553975 -s 0 -d 4 -p tcp -e 1540 -c 2 -a 0 -i 58 -k RTR
r -t 0.367480122 -s 4 -d 4 -p tcp -e 1540 -c 2 -a 0 -i 33 -k AGT
+ -t 0.367480122 -s 4 -d -1 -p ack -e 40 -c 2 -a 0 -i 59 -k AGT 
- -t 0.367480122 -s 4 -d -1 -p ack -e 40 -c 2 -a 0 -i 59 -k AGT
h -t 0.367480122 -s 4 -d -1 -p ack -e 40 -c 2 -a 0 -i 59 -k AGT
+ -t 0.367480122 -s 4 -d 0 -p ack -e 40 -c 2 -a 0 -i 59 -k RTR 
- -t 0.367480122 -s 4 -d 0 -p ack -e 40 -c 2 -a 0 -i 59 -k RTR
h -t 0.367480122 -s 4 -d 0 -p ack -e 40 -c 2 -a 0 -i 59 -k RTR
r -t 0.381346984 -s 4 -d 4 -p tcp -e 1540 -c 2 -a 0 -i 37 -k AGT
+ -t 0.381346984 -s 4 -d -1 -p ack -e 40 -c 2 -a 0 -i 60 -k AGT 
- -t 0.381346984 -s 4 -d -1 -p ack -e 40 -c 2 -a 0 -i 60 -k AGT
h -t 0.381346984 -s 4 -d -1 -p ack -e 40 -c 2 -a 0 -i 60 -k AGT
+ -t 0.381346984 -s 4 -d 0 -p ack -e 40 -c 2 -a 0 -i 60 -k RTR 
- -t 0.381346984 -s 4 -d 0 -p ack -e 40 -c 2 -a 0 -i 60 -k RTR
h -t 0.381346984 -s 4 -d 0 -p ack -e 40 -c 2 -a 0 -i 60 -k RTR
r -t 0.383353131 -s 0 -d 0 -p ack -e 40 -c 2 -a 0 -i 47 -k AGT
+ -t 0.383353131 -s 0 -d -1 -p tcp -e 1540 -c 2 -a 0 -i 61 -k AGT 
- -t 0.383353131 -s 0 -d -1 -p tcp -e 1540 -c 2 -a 0 -i 61 -k AGT
h -t 0.383353131 -s 0 -d -1 -p tcp -e 1540 -c 2 -a 0 -i 61 -k AGT
+ -t 0.383353131 -s 0 -d -1 -p tcp -e 1540 -c 2 -a 0 -i 62 -k AGT 
- -t 0.383353131 -s 0 -d -1 -p tcp -e 1540 -c 2 -a 0 -i 62 -k AGT