s 29.062650038 _11_ RTR  --- 0 AODV 48 [0 ffffffff 3 800] ------- [11:255 -1:255 26 0] [0x2 5 5 [5 0] [4 12]] (REQUEST)
s 29.062752978 _6_ RTR  --- 0 AODV 48 [0 ffffffff f 800] ------- [6:255 -1:255 27 0] [0x2 4 5 [5 0] [4 12]] (REQUEST)
r 29.062804576 _12_ RTR  --- 7224 tcp 41 [13a c 3 800] ------- [3:0 6:0 30 12] [3606 0] 1 0
f 29.062804576 _12_ RTR  --- 7224 tcp 41 [13a c 3 800] ------- [3:0 6:0 29 6] [3606 0] 1 0
s 29.063587272 _12_ RTR  --- 0 AODV 48 [0 ffffffff f 800] ------- [12:255 -1:255 27 0] [0x2 4 5 [5 0] [4 12]] (REQUEST)
r 29.064317397 _12_ RTR  --- 0 AODV 48 [0 ffffffff 6 800] ------- [6:255 -1:255 27 0] [0x2 4 5 [5 0] [4 12]] (REQUEST)
r 29.064841603 _0_ AGT  --- 7222 ack 40 [13a 0 5 800] ------- [9:0 0:0 29 0] [1 0] 2 0
s 29.064841603 _0_ AGT  --- 7225 tcp 41 [0 0 0 0] ------- [0:0 9:0 32 0] [2 0] 0 0
r 29.064841603 _0_ RTR  --- 7225 tcp 41 [0 0 0 0] ------- [0:0 9:0 32 0] [2 0] 0 0
s 29.064841603 _0_ AGT  --- 7226 tcp 41 [0 0 0 0] ------- [0:0 9:0 32 0] [3 0] 0 0
r 29.064841603 _0_ RTR  --- 7226 tcp 41 [0 0 0 0] ------- [0:0 9:0 32 0] [3 0] 0 0
s 29.064841603 _0_ RTR  --- 7225 tcp 41 [0 0 0 0] ------- [0:0 9:0 30 5] [2 0] 0 0
s 29.064841603 _0_ RTR  --- 7226 tcp 41 [0 0 0 0] ------- [0:0 9:0 30 5] [3 0] 0 0
r 29.065861201 _3_ RTR  --- 0 AODV 48 [0 ffffffff b 800] ------- [11:255 -1:255 26 0] [0x2 5 5 [5 0] [4 12]] (REQUEST)
r 29.067175226 _5_ RTR  --- 7225 tcp 41 [13a 5 0 800] ------- [0:0 9:0 30 5] [2 0] 1 0
f 29.067175226 _5_ RTR  --- 7225 tcp 41 [13a 5 0 800] ------- [0:0 9:0 29 9] [2 0] 1 0
r 29.069149389 _5_ RTR  --- 7226 tcp 41 [13a 5 0 800] ------- [0:0 9:0 30 5] [3 0] 1 0
f 29.069149389 _5_ RTR  --- 7226 tcp 41 [13a 5 0 800] ------- [0:0 9:0 29 9] [3 0] 1 0
r 29.071063732 _9_ AGT  --- 7225 tcp 41 [13a 9 5 800] ------- [0:0 9:0 29 9] [2 0] 2 0
s 29.071063732 _9_ AGT  --- 7227 ack 40 [0 0 0 0] ------- [9:0 0:0 32 0] [2 0] 0 0
r 29.071063732 _9_ RTR  --- 7227 ack 40 [0 0 0 0] ------- [9:0 0:0 32 0] [2 0] 0 0
s 29.071063732 _9_ RTR  --- 7227 ack 40 [0 0 0 0] ------- [9:0 0:0 30 5] [2 0] 0 0
r 29.073498856 _9_ AGT  --- 7226 tcp 41 [13a 9 5 800] ------- [0:0 9:0 29 9] [3 0] 2 0
s 29.073498856 _9_ AGT  --- 7228 ack 40 [0 0 0 0] ------- [9:0 0:0 32 0] [3 0] 0 0
r 29.073498856 _9_ RTR  --- 7228 ack 40 [0 0 0 0] ------- [9:0 0:0 32 0] [3 0] 0 0
s 29.073498856 _9_ RTR  --- 7228 ack 40 [0 0 0 0] ------- [9:0 0:0 30 5] [3 0] 0 0
r 29.075616644 _3_ AGT  --- 7202 ack 40 [13a 3 c 800] ------- [6:0 3:0 29 3] [3587 0] 2 0
s 29.075616644 _3_ AGT  --- 7229 tcp 41 [0 0 0 0] ------- [3:0 6:0 32 0] [3607 0] 0 0
r 29.075616644 _3_ RTR  --- 7229 tcp 41 [0 0 0 0] ------- [3:0 6:0 32 0] [3607 0] 0 0
s 29.075616644 _3_ RTR  --- 7229 tcp 41 [0 0 0 0] ------- [3:0 6:0 30 12] [3607 0] 0 0
r 29.077909778 _12_ RTR  --- 7229 tcp 41 [13a c 3 800] ------- [3:0 6:0 30 12] [3607 0] 1 0
f 29.077909778 _12_ RTR  --- 7229 tcp 41 [13a c 3 800] ------- [3:0 6:0 29 6] [3607 0] 1 0
r 29.079182156 _3_ RTR  --- 0 AODV 48 [0 ffffffff c 800] ------- [12:255 -1:255 27 0] [0x2 4 5 [5 0] [4 12]] (REQUEST)
r 29.079182189 _6_ RTR  --- 0 AODV 48 [0 ffffffff c 800] ------- [12:255 -1:255 27 0] [0x2 4 5 [5 0] [4 12]] (REQUEST)
r 29.079182464 _15_ RTR  --- 0 AODV 48 [0 ffffffff c 800] ------- [12:255 -1:255 27 0] [0x2 4 5 [5 0] [4 12]] (REQUEST)
r 29.080872912 _3_ AGT  --- 7203 ack 40 [13a 3 c 800] ------- [6:0 3:0 29 3] [3588 0] 2 0
s 29.080872912 _3_ AGT  --- 7230 tcp 41 [0 0 0 0] ------- [3:0 6:0 32 0] [3608 0] 0 0
r 29.080872912 _3_ RTR  --- 7230 tcp 41 [0 0 0 0] ------- [3:0 6:0 32 0] [3608 0] 0 0
s 29.080872912 _3_ RTR  --- 7230 tcp 41 [0 0 0 0] ------- [3:0 6:0 30 12] [3608 0] 0 0
r 29.082966047 _12_ RTR  --- 7230 tcp 41 [13a c 3 800] ------- [3:0 6:0 30 12] [3608 0] 1 0
f 29.082966047 _12_ RTR  --- 7230 tcp 41 [13a c 3 800] ------- [3:0 6:0 29 6] [3608 0] 1 0
r 29.084971181 _3_ AGT  --- 7204 ack 40 [13a 3 c 800] ------- [6:0 3:0 29 3] [3589 0] 2 0
s 29.084971181 _3_ AGT  --- 7231 tcp 41 [0 0 0 0] ------- [3:0 6:0 32 0] [3609 0] 0 0
r 29.084971181 _3_ RTR  --- 7231 tcp 41 [0 0 0 0] ------- [3:0 6:0 32 0] [3609 0] 0 0
s 29.084971181 _3_ RTR  --- 7231 tcp 41 [0 0 0 0] ------- [3:0 6:0 30 12] [3609 0] 0 0
r 29.086964315 _12_ RTR  --- 7231 tcp 41 [13a c 3 800] ------- [3:0 6:0 30 12] [3609 0] 1 0
f 29.086964315 _12_ RTR  --- 7231 tcp 41 [13a c 3 800] ------- [3:0 6:0 29 6] [3609 0] 1 0
r 29.089137545 _6_ AGT  --- 7205 tcp 41 [13a 6 c 800] ------- [3:0 6:0 29 6] [3599 0] 2 0
s 29.089137545 _6_ AGT  --- 7232 ack 40 [0 0 0 0] ------- [6:0 3:0 32 0] [3599 0] 0 0
r 29.089137545 _6_ RTR  --- 7232 ack 40 [0 0 0 0] ------- [6:0 3:0 32 0] [3599 0] 0 0
s 29.089137545 _6_ RTR  --- 7232 ack 40 [0 0 0 0] ------- [6:0 3:0 30 12] [3599 0] 0 0
r 29.091283090 _3_ AGT  --- 7206 ack 40 [13a 3 c 800] ------- [6:0 3:0 29 3] [3590 0] 2 0
s 29.091283090 _3_ AGT  --- 7233 tcp 41 [0 0 0 0] ------- [3:0 6:0 32 0] [3610 0] 0 0
r 29.091283090 _3_ RTR  --- 7233 tcp 41 [0 0 0 0] ------- [3:0 6:0 32 0] [3610 0] 0 0
s 29.091283090 _3_ RTR  --- 7233 tcp 41 [0 0 0 0] ------- [3:0 6:0 30 12] [3610 0] 0 0
r 29.093208945 _12_ RTR  --- 7232 ack 40 [13a c 6 800] ------- [6:0 3:0 30 12] [3599 0] 1 0
f 29.093208945 _12_ RTR  --- 7232 ack 40 [13a c 6 800] ------- [6:0 3:0 29 3] [3599 0] 1 0
r 29.095082176 _6_ AGT  --- 7208 tcp 41 [13a 6 c 800] ------- [3:0 6:0 29 6] [3600 0] 2 0
s 29.095082176 _6_ AGT  --- 7234 ack 40 [0 0 0 0] ------- [6:0 3:0 32 0] [3600 0] 0 0
r 29.095082176 _6_ RTR  --- 7234 ack 40 [0 0 0 0] ------- [6:0 3:0 32 0] [3600 0] 0 0
s 29.095082176 _6_ RTR  --- 7234 ack 40 [0 0 0 0] ------- [6:0 3:0 30 12] [3600 0] 0 0
r 29.097007720 _3_ AGT  --- 7207 ack 40 [13a 3 c 800] ------- [6:0 3:0 29 3] [3591 0] 2 0
s 29.097007720 _3_ AGT  --- 7235 tcp 41 [0 0 0 0] ------- [3:0 6:0 32 0] [3611 0] 0 0
r 29.097007720 _3_ RTR  --- 7235 tcp 41 [0 0 0 0] ------- [3:0 6:0 32 0] [3611 0] 0 0
s 29.097007720 _3_ RTR  --- 7235 tcp 41 [0 0 0 0] ------- [3:0 6:0 30 12] [3611 0] 0 0
r 29.098940854 _12_ RTR  --- 7233 tcp 41 [13a c 3 800] ------- [3:0 6:0 30 12] [3610 0] 1 0
f 29.098940854 _12_ RTR  --- 7233 tcp 41 [13a c 3 800] ------- [3:0 6:0 29 6] [3610 0] 1 0
r 29.100886495 _12_ RTR  --- 7234 ack 40 [13a c 6 800] ------- [6:0 3:0 30 12] [3600 0] 1 0
f 29.100886495 _12_ RTR  --- 7234 ack 40 [13a c 6 800] ------- [6:0 3:0 29 3] [3600 0] 1 0
r 29.102840007 _12_ RTR  --- 7235 tcp 41 [13a c 3 800] ------- [3:0 6:0 30 12] [3611 0] 1 0
f 29.102840007 _12_ RTR  --- 7235 tcp 41 [13a c 3 800] ------- [3:0 6:0 29 6] [3611 0] 1 0
r 29.104725141 _3_ AGT  --- 7209 ack 40 [13a 3 c 800] ------- [6:0 3:0 29 3] [3592 0] 2 0
s 29.104725141 _3_ AGT  --- 7236 tcp 41 [0 0 0 0] ------- [3:0 6:0 32 0] [3612 0] 0 0
r 29.104725141 _3_ RTR  --- 7236 tcp 41 [0 0 0 0] ------- [3:0 6:0 32 0] [3612 0] 0 0
s 29.104725141 _3_ RTR  --- 7236 tcp 41 [0 0 0 0] ------- [3:0 6:0 30 12] [3612 0] 0 0
r 29.106710654 _3_ AGT  --- 7211 ack 40 [13a 3 c 800] ------- [6:0 3:0 29 3] [3593 0] 2 0
s 29.106710654 _3_ AGT  --- 7237 tcp 41 [0 0 0 0] ------- [3:0 6:0 32 0] [3613 0] 0 0
r 29.106710654 _3_ RTR  --- 7237 tcp 41 [0 0 0 0] ------- [3:0 6:0 32 0] [3613 0] 0 0
s 29.106710654 _3_ RTR  --- 7237 tcp 41 [0 0 0 0] ------- [3:0 6:0 30 12] [3613 0] 0 0
r 29.108883788 _12_ RTR  --- 7236 tcp 41 [13a c 3 800] ------- [3:0 6:0 30 12] [3612 0] 1 0
f 29.108883788 _12_ RTR  --- 7236 tcp 41 [13a c 3 800] ------- [3:0 6:0 29 6] [3612 0] 1 0
r 29.110897018 _6_ AGT  --- 7210 tcp 41 [13a 6 c 800] ------- [3:0 6:0 29 6] [3601 0] 2 0
s 29.110897018 _6_ AGT  --- 7238 ack 40 [0 0 0 0] ------- [6:0 3:0 32 0] [3601 0] 0 0
r 29.110897018 _6_ RTR  --- 7238 ack 40 [0 0 0 0] ------- [6:0 3:0 32 0] [3601 0] 0 0
s 29.110897018 _6_ RTR  --- 7238 ack 40 [0 0 0 0] ------- [6:0 3:0 30 12] [3601 0] 0 0
r 29.110945197 _5_ RTR  --- 7227 ack 40 [13a 5 9 800] ------- [9:0 0:0 30 5] [2 0] 1 0
f 29.110945197 _5_ RTR  --- 7227 ack 40 [13a 5 9 800] ------- [9:0 0:0 29 0] [2 0] 1 0
r 29.112782249 _12_ RTR  --- 7238 ack 40 [13a c 6 800] ------- [6:0 3:0 30 12] [3601 0] 1 0
f 29.112782249 _12_ RTR  --- 7238 ack 40 [13a c 6 800] ------- [6:0 3:0 29 3] [3601 0] 1 0
r 29.113012319 _5_ RTR  --- 7228 ack 40 [13a 5 9 800] ------- [9:0 0:0 30 5] [3 0] 1 0
f 29.113012319 _5_ RTR  --- 7228 ack 40 [13a 5 9 800] ------- [9:0 0:0 29 0] [3 0] 1 0
r 29.114755480 _6_ AGT  --- 7212 tcp 41 [13a 6 c 800] ------- [3:0 6:0 29 6] [3602 0] 2 0
s 29.114755480 _6_ AGT  --- 7239 ack 40 [0 0 0 0] ------- [6:0 3:0 32 0] [3602 0] 0 0
r 29.114755480 _6_ RTR  --- 7239 ack 40 [0 0 0 0] ------- [6:0 3:0 32 0] [3602 0] 0 0
s 29.114755480 _6_ RTR  --- 7239 ack 40 [0 0 0 0] ------- [6:0 3:0 30 12] [3602 0] 0 0
r 29.115117943 _0_ AGT  --- 7227 ack 40 [13a 0 5 800] ------- [9:0 0:0 29 0] [2 0] 2 0
s 29.115117943 _0_ AGT  --- 7240 tcp 41 [0 0 0 0] ------- [0:0 9:0 32 0] [4 0] 0 0
r 29.115117943 _0_ RTR  --- 7240 tcp 41 [0 0 0 0] ------- [0:0 9:0 32 0] [4 0] 0 0
s 29.115117943 _0_ RTR  --- 7240 tcp 41 [0 0 0 0] ------- [0:0 9:0 30 5] [4 0] 0 0
r 29.116620710 _12_ RTR  --- 7239 ack 40 [13a c 6 800] ------- [6:0 3:0 30 12] [3602 0] 1 0
f 29.116620710 _12_ RTR  --- 7239 ack 40 [13a c 6 800] ------- [6:0 3:0 29 3] [3602 0] 1 0
r 29.117431568 _5_ RTR  --- 7240 tcp 41 [13a 5 0 800] ------- [0:0 9:0 30 5] [4 0] 1 0
f 29.117431568 _5_ RTR  --- 7240 tcp 41 [13a 5 0 800] ------- [0:0 9:0 29 9] [4 0] 1 0
r 29.119453671 _0_ AGT  --- 7228 ack 40 [13a 0 5 800] ------- [9:0 0:0 29 0] [3 0] 2 0
s 29.119453671 _0_ AGT  --- 7241 tcp 41 [0 0 0 0] ------- [0:0 9:0 32 0] [5 0] 0 0
r 29.119453671 _0_ RTR  --- 7241 tcp 41 [0 0 0 0] ------- [0:0 9:0 32 0] [5 0] 0 0
s 29.119453671 _0_ RTR  --- 7241 tcp 41 [0 0 0 0] ------- [0:0 9:0 30 5] [5 0] 0 0
r 29.121438045 _12_ RTR  --- 7237 tcp 41 [13a c 3 800] ------- [3:0 6:0 30 12] [3613 0] 1 0
f 29.121438045 _12_ RTR  --- 7237 tcp 41 [13a c 3 800] ------- [3:0 6:0 29 6] [3613 0] 1 0
r 29.123207296 _5_ RTR  --- 7241 tcp 41 [13a 5 0 800] ------- [0:0 9:0 30 5] [5 0] 1 0
f 29.123207296 _5_ RTR  --- 7241 tcp 41 [13a 5 0 800] ------- [0:0 9:0 29 9] [5 0] 1 0
r 29.125381637 _9_ AGT  --- 7240 tcp 41 [13a 9 5 800] ------- [0:0 9:0 29 9] [4 0] 2 0
s 29.125381637 _9_ AGT  --- 7242 ack 40 [0 0 0 0] ------- [9:0 0:0 32 0] [4 0] 0 0
r 29.125381637 _9_ RTR  --- 7242 ack 40 [0 0 0 0] ------- [9:0 0:0 32 0] [4 0] 0 0
s 29.125381637 _9_ RTR  --- 7242 ack 40 [0 0 0 0] ------- [9:0 0:0 30 5] [4 0] 0 0
r 29.127336758 _9_ AGT  --- 7241 tcp 41 [13a 9 5 800] ------- [0:0 9:0 29 9] [5 0] 2 0
s 29.127336758 _9_ AGT  --- 7243 ack 40 [0 0 0 0] ------- [9:0 0:0 32 0] [5 0] 0 0
r 29.127336758 _9_ RTR  --- 7243 ack 40 [0 0 0 0] ------- [9:0 0:0 32 0] [5 0] 0 0
s 29.127336758 _9_ RTR  --- 7243 ack 40 [0 0 0 0] ------- [9:0 0:0 30 5] [5 0] 0 0
r 29.129463098 _5_ RTR  --- 7242 ack 40 [13a 5 9 800] ------- [9:0 0:0 30 5] [4 0] 1 0
f 29.129463098 _5_ RTR  --- 7242 ack 40 [13a 5 9 800] ------- [9:0 0:0 29 0] [4 0] 1 0
r 29.131605829 _0_ AGT  --- 7242 ack 40 [13a 0 5 800] ------- [9:0 0:0 29 0] [4 0] 2 0
s 29.131605829 _0_ AGT  --- 7244 tcp 41 [0 0 0 0] ------- [0:0 9:0 32 0] [6 0] 0 0
r 29.131605829 _0_ RTR  --- 7244 tcp 41 [0 0 0 0] ------- [0:0 9:0 32 0] [6 0] 0 0
s 29.131605829 _0_ AGT  --- 7245 tcp 41 [0 0 0 0] ------- [0:0 9:0 32 0] [7 0] 0 0
r 29.131605829 _0_ RTR  --- 7245 tcp 41 [0 0 0 0] ------- [0:0 9:0 32 0] [7 0] 0 0
s 29.131605829 _0_ RTR  --- 7244 tcp 41 [0 0 0 0] ------- [0:0 9:0 30 5] [6 0] 0 0
s 29.131605829 _0_ RTR  --- 7245 tcp 41 [0 0 0 0] ------- [0:0 9:0 30 5] [7 0] 0 0
r 29.133411936 _3_ AGT  --- 7213 ack 40 [13a 3 c 800] ------- [6:0 3:0 29 3] [3594 0] 2 0
s 29.133411936 _3_ AGT  --- 7246 tcp 41 [0 0 0 0] ------- [3:0 6:0 32 0] [3614 0] 0 0
r 29.133411936 _3_ RTR  --- 7246 tcp 41 [0 0 0 0] ------- [3:0 6:0 32 0] [3614 0] 0 0
s 29.133411936 _3_ RTR  --- 7246 tcp 41 [0 0 0 0] ------- [3:0 6:0 30 12] [3614 0] 0 0
r 29.135497448 _3_ AGT  --- 7215 ack 40 [13a 3 c 800] ------- [6:0 3:0 29 3] [3595 0] 2 0
s 29.135497448 _3_ AGT  --- 7247 tcp 41 [0 0 0 0] ------- [3:0 6:0 32 0] [3615 0] 0 0
r 29.135497448 _3_ RTR  --- 7247 tcp 41 [0 0 0 0] ------- [3:0 6:0 32 0] [3615 0] 0 0
s 29.135497448 _3_ RTR  --- 7247 tcp 41 [0 0 0 0] ------- [3:0 6:0 30 12] [3615 0] 0 0
r 29.137882961 _3_ AGT  --- 7216 ack 40 [13a 3 c 800] ------- [6:0 3:0 29 3] [3596 0] 2 0
s 29.137882961 _3_ AGT  --- 7248 tcp 41 [0 0 0 0] ------- [3:0 6:0 32 0] [3616 0] 0 0
r 29.137882961 _3_ RTR  --- 7248 tcp 41 [0 0 0 0] ------- [3:0 6:0 32 0] [3616 0] 0 0
s 29.137882961 _3_ RTR  --- 7248 tcp 41 [0 0 0 0] ------- [3:0 6:0 30 12] [3616 0] 0 0
r 29.138673168 _5_ RTR  --- 7244 tcp 41 [13a 5 0 800] ------- [0:0 9:0 30 5] [6 0] 1 0
f 29.138673168 _5_ RTR  --- 7244 tcp 41 [13a 5 0 800] ------- [0:0 9:0 29 9] [6 0] 1 0
r 29.140767334 _5_ RTR  --- 7245 tcp 41 [13a 5 0 800] ------- [0:0 9:0 30 5] [7 0] 1 0
f 29.140767334 _5_ RTR  --- 7245 tcp 41 [13a 5 0 800] ------- [0:0 9:0 29 9] [7 0] 1 0
r 29.141357474 _6_ AGT  --- 7214 tcp 41 [13a 6 c 800] ------- [3:0 6:0 29 6] [3603 0] 2 0
s 29.141357474 _6_ AGT  --- 7249 ack 40 [0 0 0 0] ------- [6:0 3:0 32 0] [3603 0] 0 0
r 29.141357474 _6_ RTR  --- 7249 ack 40 [0 0 0 0] ------- [6:0 3:0 32 0] [3603 0] 0 0
s 29.141357474 _6_ RTR  --- 7249 ack 40 [0 0 0 0] ------- [6:0 3:0 30 12] [3603 0] 0 0
r 29.142921674 _9_ AGT  --- 7244 tcp 41 [13a 9 5 800] ------- [0:0 9:0 29 9] [6 0] 2 0
s 29.142921674 _9_ AGT  --- 7250 ack 40 [0 0 0 0] ------- [9:0 0:0 32 0] [6 0] 0 0
r 29.142921674 _9_ RTR  --- 7250 ack 40 [0 0 0 0] ------- [9:0 0:0 32 0] [6 0] 0 0
s 29.142921674 _9_ RTR  --- 7250 ack 40 [0 0 0 0] ------- [9:0 0:0 30 5] [6 0] 0 0
r 29.144936794 _9_ AGT  --- 7245 tcp 41 [13a 9 5 800] ------- [0:0 9:0 29 9] [7 0] 2 0
s 29.144936794 _9_ AGT  --- 7251 ack 40 [0 0 0 0] ------- [9:0 0:0 32 0] [7 0] 0 0
r 29.144936794 _9_ RTR  --- 7251 ack 40 [0 0 0 0] ------- [9:0 0:0 32 0] [7 0] 0 0
s 29.144936794 _9_ RTR  --- 7251 ack 40 [0 0 0 0] ------- [9:0 0:0 30 5] [7 0] 0 0
r 29.147197396 _12_ RTR  --- 7246 tcp 41 [13a c 3 800] ------- [3:0 6:0 30 12] [3614 0] 1 0
f 29.147197396 _12_ RTR  --- 7246 tcp 41 [13a c 3 800] ------- [3:0 6:0 29 6] [3614 0] 1 0
r 29.149070909 _12_ RTR  --- 7247 tcp 41 [13a c 3 800] ------- [3:0 6:0 30 12] [3615 0] 1 0
f 29.149070909 _12_ RTR  --- 7247 tcp 41 [13a c 3 800] ------- [3:0 6:0 29 6] [3615 0] 1 0
r 29.150936549 _12_ RTR  --- 7249 ack 40 [13a c 6 800] ------- [6:0 3:0 30 12] [3603 0] 1 0
f 29.150936549 _12_ RTR  --- 7249 ack 40 [13a c 6 800] ------- [6:0 3:0 29 3] [3603 0] 1 0
r 29.151423134 _5_ RTR  --- 7243 ack 40 [13a 5 9 800] ------- [9:0 0:0 30 5] [5 0] 1 0
f 29.151423134 _5_ RTR  --- 7243 ack 40 [13a 5 9 800] ------- [9:0 0:0 29 0] [5 0] 1 0
r 29.153268760 _0_ AGT  --- 7243 ack 40 [13a 0 5 800] ------- [9:0 0:0 29 0] [5 0] 2 0
s 29.153268760 _0_ AGT  --- 7252 tcp 41 [0 0 0 0] ------- [0:0 9:0 32 0] [8 0] 0 0
r 29.153268760 _0_ RTR  --- 7252 tcp 41 [0 0 0 0] ------- [0:0 9:0 32 0] [8 0] 0 0
s 29.153268760 _0_ RTR  --- 7252 tcp 41 [0 0 0 0] ------- [0:0 9:0 30 5] [8 0] 0 0
r 29.154941684 _3_ AGT  --- 7219 ack 40 [13a 3 c 800] ------- [6:0 3:0 29 3] [3597 0] 2 0
s 29.154941684 _3_ AGT  --- 7253 tcp 41 [0 0 0 0] ------- [3:0 6:0 32 0] [3617 0] 0 0
r 29.154941684 _3_ RTR  --- 7253 tcp 41 [0 0 0 0] ------- [3:0 6:0 32 0] [3617 0] 0 0
s 29.154941684 _3_ RTR  --- 7253 tcp 41 [0 0 0 0] ------- [3:0 6:0 30 12] [3617 0] 0 0
r 29.157214818 _12_ RTR  --- 7248 tcp 41 [13a c 3 800] ------- [3:0 6:0 30 12] [3616 0] 1 0
f 29.157214818 _12_ RTR  --- 7248 tcp 41 [13a c 3 800] ------- [3:0 6:0 29 6] [3616 0] 1 0
r 29.159139953 _3_ AGT  --- 7221 ack 40 [13a 3 c 800] ------- [6:0 3:0 29 3] [3598 0] 2 0
s 29.159139953 _3_ AGT  --- 7254 tcp 41 [0 0 0 0] ------- [3:0 6:0 32 0] [3618 0] 0 0
r 29.159139953 _3_ RTR  --- 7254 tcp 41 [0 0 0 0] ------- [3:0 6:0 32 0] [3618 0] 0 0
s 29.159139953 _3_ RTR  --- 7254 tcp 41 [0 0 0 0] ------- [3:0 6:0 30 12] [3618 0] 0 0
r 29.161073087 _12_ RTR  --- 7253 tcp 41 [13a c 3 800] ------- [3:0 6:0 30 12] [3617 0] 1 0
f 29.161073087 _12_ RTR  --- 7253 tcp 41 [13a c 3 800] ------- [3:0 6:0 29 6] [3617 0] 1 0
r 29.163286317 _6_ AGT  --- 7218 tcp 41 [13a 6 c 800] ------- [3:0 6:0 29 6] [3604 0] 2 0
s 29.163286317 _6_ AGT  --- 7255 ack 40 [0 0 0 0] ------- [6:0 3:0 32 0] [3604 0] 0 0
r 29.163286317 _6_ RTR  --- 7255 ack 40 [0 0 0 0] ------- [6:0 3:0 32 0] [3604 0] 0 0
s 29.163286317 _6_ RTR  --- 7255 ack 40 [0 0 0 0] ------- [6:0 3:0 30 12] [3604 0] 0 0
r 29.163651571 _5_ RTR  --- 7252 tcp 41 [13a 5 0 800] ------- [0:0 9:0 30 5] [8 0] 1 0
f 29.163651571 _5_ RTR  --- 7252 tcp 41 [13a 5 0 800] ------- [0:0 9:0 29 9] [8 0] 1 0
r 29.165451548 _12_ RTR  --- 7255 ack 40 [13a c 6 800] ------- [6:0 3:0 30 12] [3604 0] 1 0
f 29.165451548 _12_ RTR  --- 7255 ack 40 [13a c 6 800] ------- [6:0 3:0 29 3] [3604 0] 1 0
r 29.165585910 _9_ AGT  --- 7252 tcp 41 [13a 9 5 800] ------- [0:0 9:0 29 9] [8 0] 2 0
s 29.165585910 _9_ AGT  --- 7256 ack 40 [0 0 0 0] ------- [9:0 0:0 32 0] [8 0] 0 0
r 29.165585910 _9_ RTR  --- 7256 ack 40 [0 0 0 0] ------- [9:0 0:0 32 0] [8 0] 0 0
s 29.165585910 _9_ RTR  --- 7256 ack 40 [0 0 0 0] ------- [9:0 0:0 30 5] [8 0] 0 0
r 29.167404778 _6_ AGT  --- 7223 tcp 41 [13a 6 c 800] ------- [3:0 6:0 29 6] [3605 0] 2 0
s 29.167404778 _6_ AGT  --- 7257 ack 40 [0 0 0 0] ------- [6:0 3:0 32 0] [3605 0] 0 0
r 29.167404778 _6_ RTR  --- 7257 ack 40 [0 0 0 0] ------- [6:0 3:0 32 0] [3605 0] 0 0
s 29.167404778 _6_ RTR  --- 7257 ack 40 [0 0 0 0] ------- [6:0 3:0 30 12] [3605 0] 0 0
r 29.169270008 _12_ RTR  --- 7257 ack 40 [13a c 6 800] ------- [6:0 3:0 30 12] [3605 0] 1 0
f 29.169270008 _12_ RTR  --- 7257 ack 40 [13a c 6 800] ------- [6:0 3:0 29 3] [3605 0] 1 0
r 29.169832249 _5_ RTR  --- 7250 ack 40 [13a 5 9 800] ------- [9:0 0:0 30 5] [6 0] 1 0
f 29.169832249 _5_ RTR  --- 7250 ack 40 [13a 5 9 800] ------- [9:0 0:0 29 0] [6 0] 1 0
r 29.172139368 _5_ RTR  --- 7251 ack 40 [13a 5 9 800] ------- [9:0 0:0 30 5] [7 0] 1 0
f 29.172139368 _5_ RTR  --- 7251 ack 40 [13a 5 9 800] ------- [9:0 0:0 29 0] [7 0] 1 0
r 29.173085995 _6_ AGT  --- 7224 tcp 41 [13a 6 c 800] ------- [3:0 6:0 29 6] [3606 0] 2 0
s 29.173085995 _6_ AGT  --- 7258 ack 40 [0 0 0 0] ------- [6:0 3:0 32 0] [3606 0] 0 0
r 29.173085995 _6_ RTR  --- 7258 ack 40 [0 0 0 0] ------- [6:0 3:0 32 0] [3606 0] 0 0
s 29.173085995 _6_ RTR  --- 7258 ack 40 [0 0 0 0] ------- [6:0 3:0 30 12] [3606 0] 0 0
r 29.174024994 _0_ AGT  --- 7250 ack 40 [13a 0 5 800] ------- [9:0 0:0 29 0] [6 0] 2 0
s 29.174024994 _0_ AGT  --- 7259 tcp 41 [0 0 0 0] ------- [0:0 9:0 32 0] [9 0] 0 0
r 29.174024994 _0_ RTR  --- 7259 tcp 41 [0 0 0 0] ------- [0:0 9:0 32 0] [9 0] 0 0
s 29.174024994 _0_ RTR  --- 7259 tcp 41 [0 0 0 0] ------- [0:0 9:0 30 5] [9 0] 0 0
r 29.174991225 _12_ RTR  --- 7258 ack 40 [13a c 6 800] ------- [6:0 3:0 30 12] [3606 0] 1 0
f 29.174991225 _12_ RTR  --- 7258 ack 40 [13a c 6 800] ------- [6:0 3:0 29 3] [3606 0] 1 0
r 29.176098620 _5_ RTR  --- 7259 tcp 41 [13a 5 0 800] ------- [0:0 9:0 30 5] [9 0] 1 0
f 29.176098620 _5_ RTR  --- 7259 tcp 41 [13a 5 0 800] ------- [0:0 9:0 29 9] [9 0] 1 0
r 29.177144455 _6_ AGT  --- 7229 tcp 41 [13a 6 c 800] ------- [3:0 6:0 29 6] [3607 0] 2 0
s 29.177144455 _6_ AGT  --- 7260 ack 40 [0 0 0 0] ------- [6:0 3:0 32 0] [3607 0] 0 0
r 29.177144455 _6_ RTR  --- 7260 ack 40 [0 0 0 0] ------- [6:0 3:0 32 0] [3607 0] 0 0
s 29.177144455 _6_ RTR  --- 7260 ack 40 [0 0 0 0] ------- [6:0 3:0 30 12] [3607 0] 0 0
r 29.178235713 _5_ RTR  --- 7256 ack 40 [13a 5 9 800] ------- [9:0 0:0 30 5] [8 0] 1 0
f 29.178235713 _5_ RTR  --- 7256 ack 40 [13a 5 9 800] ------- [9:0 0:0 29 0] [8 0] 1 0
r 29.179198095 _6_ AGT  --- 7230 tcp 41 [13a 6 c 800] ------- [3:0 6:0 29 6] [3608 0] 2 0
s 29.179198095 _6_ AGT  --- 7261 ack 40 [0 0 0 0] ------- [6:0 3:0 32 0] [3608 0] 0 0
r 29.179198095 _6_ RTR  --- 7261 ack 40 [0 0 0 0] ------- [6:0 3:0 32 0] [3608 0] 0 0
s 29.179198095 _6_ RTR  --- 7261 ack 40 [0 0 0 0] ------- [6:0 3:0 30 12] [3608 0] 0 0
r 29.180101340 _0_ AGT  --- 7251 ack 40 [13a 0 5 800] ------- [9:0 0:0 29 0] [7 0] 2 0
s 29.180101340 _0_ AGT  --- 7262 tcp 41 [0 0 0 0] ------- [0:0 9:0 32 0] [10 0] 0 0
r 29.180101340 _0_ RTR  --- 7262 tcp 41 [0 0 0 0] ------- [0:0 9:0 32 0] [10 0] 0 0
s 29.180101340 _0_ AGT  --- 7263 tcp 41 [0 0 0 0] ------- [0:0 9:0 32 0] [11 0] 0 0
r 29.180101340 _0_ RTR  --- 7263 tcp 41 [0 0 0 0] ------- [0:0 9:0 32 0] [11 0] 0 0
s 29.180101340 _0_ RTR  --- 7262 tcp 41 [0 0 0 0] ------- [0:0 9:0 30 5] [10 0] 0 0
s 29.180101340 _0_ RTR  --- 7263 tcp 41 [0 0 0 0] ------- [0:0 9:0 30 5] [11 0] 0 0
r 29.181111735 _6_ AGT  --- 7231 tcp 41 [13a 6 c 800] ------- [3:0 6:0 29 6] [3609 0] 2 0
s 29.181111735 _6_ AGT  --- 7264 ack 40 [0 0 0 0] ------- [6:0 3:0 32 0] [3609 0] 0 0
r 29.181111735 _6_ RTR  --- 7264 ack 40 [0 0 0 0] ------- [6:0 3:0 32 0] [3609 0] 0 0
s 29.181111735 _6_ RTR  --- 7264 ack 40 [0 0 0 0] ------- [6:0 3:0 30 12] [3609 0] 0 0
r 29.182216220 _9_ AGT  --- 7259 tcp 41 [13a 9 5 800] ------- [0:0 9:0 29 9] [9 0] 2 0
s 29.182216220 _9_ AGT  --- 7265 ack 40 [0 0 0 0] ------- [9:0 0:0 32 0] [9 0] 0 0
r 29.182216220 _9_ RTR  --- 7265 ack 40 [0 0 0 0] ------- [9:0 0:0 32 0] [9 0] 0 0
s 29.182216220 _9_ RTR  --- 7265 ack 40 [0 0 0 0] ------- [9:0 0:0 30 5] [9 0] 0 0
r 29.183056965 _12_ RTR  --- 7260 ack 40 [13a c 6 800] ------- [6:0 3:0 30 12] [3607 0] 1 0
f 29.183056965 _12_ RTR  --- 7260 ack 40 [13a c 6 800] ------- [6:0 3:0 29 3] [3607 0] 1 0
r 29.184435143 _5_ RTR  --- 7262 tcp 41 [13a 5 0 800] ------- [0:0 9:0 30 5] [10 0] 1 0
f 29.184435143 _5_ RTR  --- 7262 tcp 41 [13a 5 0 800] ------- [0:0 9:0 29 9] [10 0] 1 0
r 29.185062605 _12_ RTR  --- 7261 ack 40 [13a c 6 800] ------- [6:0 3:0 30 12] [3608 0] 1 0
f 29.185062605 _12_ RTR  --- 7261 ack 40 [13a c 6 800] ------- [6:0 3:0 29 3] [3608 0] 1 0
r 29.186320770 _0_ AGT  --- 7256 ack 40 [13a 0 5 800] ------- [9:0 0:0 29 0] [8 0] 2 0
s 29.186320770 _0_ AGT  --- 7266 tcp 41 [0 0 0 0] ------- [0:0 9:0 32 0] [12 0] 0 0
r 29.186320770 _0_ RTR  --- 7266 tcp 41 [0 0 0 0] ------- [0:0 9:0 32 0] [12 0] 0 0
s 29.186320770 _0_ RTR  --- 7266 tcp 41 [0 0 0 0] ------- [0:0 9:0 30 5] [12 0] 0 0
r 29.186928245 _12_ RTR  --- 7264 ack 40 [13a c 6 800] ------- [6:0 3:0 30 12] [3609 0] 1 0
f 29.186928245 _12_ RTR  --- 7264 ack 40 [13a c 6 800] ------- [6:0 3:0 29 3] [3609 0] 1 0
r 29.188414397 _5_ RTR  --- 7263 tcp 41 [13a 5 0 800] ------- [0:0 9:0 30 5] [11 0] 1 0
f 29.188414397 _5_ RTR  --- 7263 tcp 41 [13a 5 0 800] ------- [0:0 9:0 29 9] [11 0] 1 0
r 29.190371489 _5_ RTR  --- 7265 ack 40 [13a 5 9 800] ------- [9:0 0:0 30 5] [9 0] 1 0
f 29.190371489 _5_ RTR  --- 7265 ack 40 [13a 5 9 800] ------- [9:0 0:0 29 0] [9 0] 1 0
r 29.192305827 _9_ AGT  --- 7262 tcp 41 [13a 9 5 800] ------- [0:0 9:0 29 9] [10 0] 2 0
s 29.192305827 _9_ AGT  --- 7267 ack 40 [0 0 0 0] ------- [9:0 0:0 32 0] [10 0] 0 0
r 29.192305827 _9_ RTR  --- 7267 ack 40 [0 0 0 0] ------- [9:0 0:0 32 0] [10 0] 0 0
s 29.192305827 _9_ RTR  --- 7267 ack 40 [0 0 0 0] ------- [9:0 0:0 30 5] [10 0] 0 0
r 29.194507758 _12_ RTR  --- 7254 tcp 41 [13a c 3 800] ------- [3:0 6:0 30 12] [3618 0] 1 0
f 29.194507758 _12_ RTR  --- 7254 tcp 41 [13a c 3 800] ------- [3:0 6:0 29 6] [3618 0] 1 0
r 29.196144758 _5_ RTR  --- 7267 ack 40 [13a 5 9 800] ------- [9:0 0:0 30 5] [10 0] 1 0
f 29.196144758 _5_ RTR  --- 7267 ack 40 [13a 5 9 800] ------- [9:0 0:0 29 0] [10 0] 1 0
r 29.198079096 _9_ AGT  --- 7263 tcp 41 [13a 9 5 800] ------- [0:0 9:0 29 9] [11 0] 2 0
s 29.198079096 _9_ AGT  --- 7268 ack 40 [0 0 0 0] ------- [9:0 0:0 32 0] [11 0] 0 0
r 29.198079096 _9_ RTR  --- 7268 ack 40 [0 0 0 0] ------- [9:0 0:0 32 0] [11 0] 0 0
s 29.198079096 _9_ RTR  --- 7268 ack 40 [0 0 0 0] ------- [9:0 0:0 30 5] [11 0] 0 0
r 29.200025502 _0_ AGT  --- 7265 ack 40 [13a 0 5 800] ------- [9:0 0:0 29 0] [9 0] 2 0
s 29.200025502 _0_ AGT  --- 7269 tcp 41 [0 0 0 0] ------- [0:0 9:0 32 0] [13 0] 0 0
r 29.200025502 _0_ RTR  --- 7269 tcp 41 [0 0 0 0] ------- [0:0 9:0 32 0] [13 0] 0 0
s 29.200025502 _0_ RTR  --- 7269 tcp 41 [0 0 0 0] ------- [0:0 9:0 30 5] [13 0] 0 0
r 29.201891672 _0_ AGT  --- 7267 ack 40 [13a 0 5 800] ------- [9:0 0:0 29 0] [10 0] 2 0
s 29.201891672 _0_ AGT  --- 7270 tcp 41 [0 0 0 0] ------- [0:0 9:0 32 0] [14 0] 0 0
r 29.201891672 _0_ RTR  --- 7270 tcp 41 [0 0 0 0] ------- [0:0 9:0 32 0] [14 0] 0 0
s 29.201891672 _0_ RTR  --- 7270 tcp 41 [0 0 0 0] ------- [0:0 9:0 30 5] [14 0] 0 0
r 29.204443306 _5_ RTR  --- 7268 ack 40 [13a 5 9 800] ------- [9:0 0:0 30 5] [11 0] 1 0
f 29.204443306 _5_ RTR  --- 7268 ack 40 [13a 5 9 800] ------- [9:0 0:0 29 0] [11 0] 1 0
r 29.206488933 _0_ AGT  --- 7268 ack 40 [13a 0 5 800] ------- [9:0 0:0 29 0] [11 0] 2 0
s 29.206488933 _0_ AGT  --- 7271 tcp 41 [0 0 0 0] ------- [0:0 9:0 32 0] [15 0] 0 0
r 29.206488933 _0_ RTR  --- 7271 tcp 41 [0 0 0 0] ------- [0:0 9:0 32 0] [15 0] 0 0
s 29.206488933 _0_ RTR  --- 7271 tcp 41 [0 0 0 0] ------- [0:0 9:0 30 5] [15 0] 0 0
r 29.209362560 _5_ RTR  --- 7266 tcp 41 [13a 5 0 800] ------- [0:0 9:0 30 5] [12 0] 1 0
f 29.209362560 _5_ RTR  --- 7266 tcp 41 [13a 5 0 800] ------- [0:0 9:0 29 9] [12 0] 1 0
r 29.211376898 _9_ AGT  --- 7266 tcp 41 [13a 9 5 800] ------- [0:0 9:0 29 9] [12 0] 2 0
s 29.211376898 _9_ AGT  --- 7272 ack 40 [0 0 0 0] ------- [9:0 0:0 32 0] [12 0] 0 0
r 29.211376898 _9_ RTR  --- 7272 ack 40 [0 0 0 0] ------- [9:0 0:0 32 0] [12 0] 0 0
s 29.211376898 _9_ RTR  --- 7272 ack 40 [0 0 0 0] ------- [9:0 0:0 30 5] [12 0] 0 0
r 29.213312893 _3_ AGT  --- 7232 ack 40 [13a 3 c 800] ------- [6:0 3:0 29 3] [3599 0] 2 0
s 29.213312893 _3_ AGT  --- 7273 tcp 41 [0 0 0 0] ------- [3:0 6:0 32 0] [3619 0] 0 0
r 29.213312893 _3_ RTR  --- 7273 tcp 41 [0 0 0 0] ------- [3:0 6:0 32 0] [3619 0] 0 0
s 29.213312893 _3_ RTR  --- 7273 tcp 41 [0 0 0 0] ------- [3:0 6:0 30 12] [3619 0] 0 0
r 29.215419652 _12_ RTR  --- 7273 tcp 41 [13a c 3 800] ------- [3:0 6:0 30 12] [3619 0] 1 0
f 29.215419652 _12_ RTR  --- 7273 tcp 41 [13a c 3 800] ------- [3:0 6:0 29 6] [3619 0] 1 0
r 29.217372882 _6_ AGT  --- 7233 tcp 41 [13a 6 c 800] ------- [3:0 6:0 29 6] [3610 0] 2 0
s 29.217372882 _6_ AGT  --- 7274 ack 40 [0 0 0 0] ------- [6:0 3:0 32 0] [3610 0] 0 0
r 29.217372882 _6_ RTR  --- 7274 ack 40 [0 0 0 0] ------- [6:0 3:0 32 0] [3610 0] 0 0
s 29.217372882 _6_ RTR  --- 7274 ack 40 [0 0 0 0] ------- [6:0 3:0 30 12] [3610 0] 0 0
r 29.217409500 _5_ RTR  --- 7269 tcp 41 [13a 5 0 800] ------- [0:0 9:0 30 5] [13 0] 1 0
f 29.217409500 _5_ RTR  --- 7269 tcp 41 [13a 5 0 800] ------- [0:0 9:0 29 9] [13 0] 1 0
r 29.219563837 _9_ AGT  --- 7269 tcp 41 [13a 9 5 800] ------- [0:0 9:0 29 9] [13 0] 2 0
s 29.219563837 _9_ AGT  --- 7275 ack 40 [0 0 0 0] ------- [9:0 0:0 32 0] [13 0] 0 0
r 29.219563837 _9_ RTR  --- 7275 ack 40 [0 0 0 0] ------- [9:0 0:0 32 0] [13 0] 0 0
s 29.219563837 _9_ RTR  --- 7275 ack 40 [0 0 0 0] ------- [9:0 0:0 30 5] [13 0] 0 0
r 29.221058427 _3_ AGT  --- 7234 ack 40 [13a 3 c 800] ------- [6:0 3:0 29 3] [3600 0] 2 0
s 29.221058427 _3_ AGT  --- 7276 tcp 41 [0 0 0 0] ------- [3:0 6:0 32 0] [3620 0] 0 0
r 29.221058427 _3_ RTR  --- 7276 tcp 41 [0 0 0 0] ------- [3:0 6:0 32 0] [3620 0] 0 0
s 29.221058427 _3_ RTR  --- 7276 tcp 41 [0 0 0 0] ------- [3:0 6:0 30 12] [3620 0] 0 0
r 29.223011561 _12_ RTR  --- 7276 tcp 41 [13a c 3 800] ------- [3:0 6:0 30 12] [3620 0] 1 0
f 29.223011561 _12_ RTR  --- 7276 tcp 41 [13a c 3 800] ------- [3:0 6:0 29 6] [3620 0] 1 0
r 29.224917201 _12_ RTR  --- 7274 ack 40 [13a c 6 800] ------- [6:0 3:0 30 12] [3610 0] 1 0
f 29.224917201 _12_ RTR  --- 7274 ack 40 [13a c 6 800] ------- [6:0 3:0 29 3] [3610 0] 1 0
r 29.225924762 _5_ RTR  --- 7270 tcp 41 [13a 5 0 800] ------- [0:0 9:0 30 5] [14 0] 1 0
f 29.225924762 _5_ RTR  --- 7270 tcp 41 [13a 5 0 800] ------- [0:0 9:0 29 9] [14 0] 1 0
r 29.227090431 _6_ AGT  --- 7235 tcp 41 [13a 6 c 800] ------- [3:0 6:0 29 6] [3611 0] 2 0
s 29.227090431 _6_ AGT  --- 7277 ack 40 [0 0 0 0] ------- [6:0 3:0 32 0] [3611 0] 0 0
r 29.227090431 _6_ RTR  --- 7277 ack 40 [0 0 0 0] ------- [6:0 3:0 32 0] [3611 0] 0 0
s 29.227090431 _6_ RTR  --- 7277 ack 40 [0 0 0 0] ------- [6:0 3:0 30 12] [3611 0] 0 0
r 29.227799098 _9_ AGT  --- 7270 tcp 41 [13a 9 5 800] ------- [0:0 9:0 29 9] [14 0] 2 0
s 29.227799098 _9_ AGT  --- 7278 ack 40 [0 0 0 0] ------- [9:0 0:0 32 0] [14 0] 0 0
r 29.227799098 _9_ RTR  --- 7278 ack 40 [0 0 0 0] ------- [9:0 0:0 32 0] [14 0] 0 0
s 29.227799098 _9_ RTR  --- 7278 ack 40 [0 0 0 0] ------- [9:0 0:0 30 5] [14 0] 0 0
r 29.229235661 _12_ RTR  --- 7277 ack 40 [13a c 6 800] ------- [6:0 3:0 30 12] [3611 0] 1 0
f 29.229235661 _12_ RTR  --- 7277 ack 40 [13a c 6 800] ------- [6:0 3:0 29 3] [3611 0] 1 0
r 29.230138023 _5_ RTR  --- 7271 tcp 41 [13a 5 0 800] ------- [0:0 9:0 30 5] [15 0] 1 0
f 29.230138023 _5_ RTR  --- 7271 tcp 41 [13a 5 0 800] ------- [0:0 9:0 29 9] [15 0] 1 0
r 29.231308890 _6_ AGT  --- 7236 tcp 41 [13a 6 c 800] ------- [3:0 6:0 29 6] [3612 0] 2 0
s 29.231308890 _6_ AGT  --- 7279 ack 40 [0 0 0 0] ------- [6:0 3:0 32 0] [3612 0] 0 0
r 29.231308890 _6_ RTR  --- 7279 ack 40 [0 0 0 0] ------- [6:0 3:0 32 0] [3612 0] 0 0
s 29.231308890 _6_ RTR  --- 7279 ack 40 [0 0 0 0] ------- [6:0 3:0 30 12] [3612 0] 0 0
r 29.232192359 _9_ AGT  --- 7271 tcp 41 [13a 9 5 800] ------- [0:0 9:0 29 9] [15 0] 2 0
s 29.232192359 _9_ AGT  --- 7280 ack 40 [0 0 0 0] ------- [9:0 0:0 32 0] [15 0] 0 0
r 29.232192359 _9_ RTR  --- 7280 ack 40 [0 0 0 0] ------- [9:0 0:0 32 0] [15 0] 0 0
s 29.232192359 _9_ RTR  --- 7280 ack 40 [0 0 0 0] ------- [9:0 0:0 30 5] [15 0] 0 0
r 29.234518696 _5_ RTR  --- 7272 ack 40 [13a 5 9 800] ------- [9:0 0:0 30 5] [12 0] 1 0
f 29.234518696 _5_ RTR  --- 7272 ack 40 [13a 5 9 800] ------- [9:0 0:0 29 0] [12 0] 1 0
r 29.235158940 _12_ RTR  --- 7279 ack 40 [13a c 6 800] ------- [6:0 3:0 30 12] [3612 0] 1 0
f 29.235158940 _12_ RTR  --- 7279 ack 40 [13a c 6 800] ------- [6:0 3:0 29 3] [3612 0] 1 0
r 29.236505811 _5_ RTR  --- 7275 ack 40 [13a 5 9 800] ------- [9:0 0:0 30 5] [13 0] 1 0
f 29.236505811 _5_ RTR  --- 7275 ack 40 [13a 5 9 800] ------- [9:0 0:0 29 0] [13 0] 1 0
r 29.238332926 _5_ RTR  --- 7278 ack 40 [13a 5 9 800] ------- [9:0 0:0 30 5] [14 0] 1 0
f 29.238332926 _5_ RTR  --- 7278 ack 40 [13a 5 9 800] ------- [9:0 0:0 29 0] [14 0] 1 0