n -t * -s 0  -x 760 -y 775 -Z 0 -z 25  -v circle -c black
n -t * -s 1  -x 61 -y 82 -Z 0 -z 25  -v circle -c black
n -t * -s 2  -x 784 -y 591 -Z 0 -z 25  -v circle -c black
n -t * -s 3  -x 480 -y 461 -Z 0 -z 25  -v circle -c black
n -t * -s 4  -x 505 -y 300 -Z 0 -z 25  -v circle -c black
n -t * -s 5  -x 270 -y 714 -Z 0 -z 25  -v circle -c black
n -t * -s 6  -x 610 -y 189 -Z 0 -z 25  -v circle -c black
n -t * -s 7  -x 463 -y 745 -Z 0 -z 25  -v circle -c black
n -t * -s 8  -x 936 -y 212 -Z 0 -z 25  -v circle -c black
n -t * -s 9  -x 911 -y 854 -Z 0 -z 25  -v circle -c black
n -t * -s 10  -x 882 -y 572 -Z 0 -z 25  -v circle -c black
n -t * -s 11  -x 947 -y 539 -Z 0 -z 25  -v circle -c black
n -t * -s 12  -x 715 -y 93 -Z 0 -z 25  -v circle -c black
n -t * -s 13  -x 582 -y 610 -Z 0 -z 25  -v circle -c black
n -t * -s 14  -x 81 -y 679 -Z 0 -z 25  -v circle -c black
n -t * -s 15  -x 249 -y 812 -Z 0 -z 25  -v circle -c black
n -t * -s 16  -x 228 -y 439 -Z 0 -z 25  -v circle -c black
n -t * -s 17  -x 953 -y 590 -Z 0 -z 25  -v circle -c black
n -t * -s 18  -x 957 -y 985 -Z 0 -z 25  -v circle -c black
n -t * -s 19  -x 588 -y 399 -Z 0 -z 25  -v circle -c black
V -t * -v 1.0a5 -a 0
W -t * -x 1000 -y 1000
A -t * -n 1 -p 0 -o 0x7fffffff -c 30 -a 1
A -t * -h 1 -m 1073741823 -s 0
n -t 1.000000 -s 0 -x 760.000000 -y 775.000000 -U 0.937725 -V -8.951015 -T 70.383079
n -t 1.000000 -s 1 -x 61.000000 -y 82.000000 -U 4.257007 -V 2.622573 -T 187.220725
n -t 1.000000 -s 2 -x 784.000000 -y 591.000000 -U 4.991949 -V 0.283633 -T 17.628386
n -t 1.000000 -s 3 -x 480.000000 -y 461.000000 -U -2.445825 -V -1.737222 -T 87.496032
n -t 1.000000 -s 4 -x 505.000000 -y 300.000000 -U -1.254483 -V -1.557650 -T 95.656939
n -t 1.000000 -s 5 -x 270.000000 -y 714.000000 -U -0.543674 -V 0.839297 -T 294.294071
n -t 1.000000 -s 6 -x 610.000000 -y 189.000000 -U 1.044560 -V 2.812276 -T 149.345238
n -t 1.000000 -s 7 -x 463.000000 -y 745.000000 -U 0.490551 -V -0.871413 -T 656.405363
n -t 1.000000 -s 8 -x 936.000000 -y 212.000000 -U -1.978922 -V 0.289598 -T 20.718349
n -t 1.000000 -s 9 -x 911.000000 -y 854.000000 -U -1.262109 -V -4.838086 -T 52.293403
n -t 1.000000 -s 10 -x 882.000000 -y 572.000000 -U -6.586863 -V 2.369228 -T 97.922189
n -t 1.000000 -s 11 -x 947.000000 -y 539.000000 -U -5.859843 -V -3.829130 -T 133.450671
n -t 1.000000 -s 12 -x 715.000000 -y 93.000000 -U -3.953490 -V 8.085166 -T 89.794072
n -t 1.000000 -s 13 -x 582.000000 -y 610.000000 -U 2.882435 -V -0.831607 -T 141.893935
n -t 1.000000 -s 14 -x 81.000000 -y 679.000000 -U 5.648374 -V 2.023825 -T 141.810711
n -t 1.000000 -s 15 -x 249.000000 -y 812.000000 -U -0.278058 -V -0.960564 -T 474.720971
n -t 1.000000 -s 16 -x 228.000000 -y 439.000000 -U 5.050884 -V -3.238607 -T 59.593531
n -t 1.000000 -s 17 -x 953.000000 -y 590.000000 -U -4.445848 -V 2.287889 -T 177.019095
n -t 1.000000 -s 18 -x 957.000000 -y 985.000000 -U -4.816760 -V -5.079254 -T 76.192292
n -t 1.000000 -s 19 -x 588.000000 -y 399.000000 -U -9.454073 -V 3.258912 -T 61.983869
+ -t 1.000000000 -s 0 -d -1 -p tcp -e 40 -c 2 -a 0 -i 0 -k AGT 
- -t 1.000000000 -s 0 -d -1 -p tcp -e 40 -c 2 -a 0 -i 0 -k AGT
h -t 1.000000000 -s 0 -d -1 -p tcp -e 40 -c 2 -a 0 -i 0 -k AGT
+ -t 1.000000000 -s 0 -d -1 -p AODV -e 48 -c 2 -a 0 -i 0 -k RTR 
- -t 1.000000000 -s 0 -d -1 -p AODV -e 48 -c 2 -a 0 -i 0 -k RTR
h -t 1.000000000 -s 0 -d -1 -p AODV -e 48 -c 2 -a 0 -i 0 -k RTR
r -t 1.000988568 -s 9 -d -1 -p AODV -e 48 -c 2 -a 0 -i 0 -k RTR
r -t 1.000988619 -s 2 -d -1 -p AODV -e 48 -c 2 -a 0 -i 0 -k RTR
r -t 1.000988789 -s 10 -d -1 -p AODV -e 48 -c 2 -a 0 -i 0 -k RTR
r -t 1.000988809 -s 13 -d -1 -p AODV -e 48 -c 2 -a 0 -i 0 -k RTR
+ -t 1.001869795 -s 9 -d -1 -p AODV -e 48 -c 2 -a 0 -i 0 -k RTR 
- -t 1.001869795 -s 9 -d -1 -p AODV -e 48 -c 2 -a 0 -i 0 -k RTR
h -t 1.001869795 -s 9 -d -1 -p AODV -e 48 -c 2 -a 0 -i 0 -k RTR
r -t 1.003018258 -s 18 -d -1 -p AODV -e 48 -c 2 -a 0 -i 0 -k RTR
r -t 1.003018363 -s 0 -d -1 -p AODV -e 48 -c 2 -a 0 -i 0 -k RTR
+ -t 1.004118427 -s 13 -d -1 -p AODV -e 48 -c 2 -a 0 -i 0 -k RTR 
- -t 1.004118427 -s 13 -d -1 -p AODV -e 48 -c 2 -a 0 -i 0 -k RTR
h -t 1.004118427 -s 13 -d -1 -p AODV -e 48 -c 2 -a 0 -i 0 -k RTR
r -t 1.005327027 -s 7 -d -1 -p AODV -e 48 -c 2 -a 0 -i 0 -k RTR
r -t 1.005327029 -s 3 -d -1 -p AODV -e 48 -c 2 -a 0 -i 0 -k RTR
r -t 1.005327103 -s 2 -d -1 -p AODV -e 48 -c 2 -a 0 -i 0 -k RTR
r -t 1.005327130 -s 19 -d -1 -p AODV -e 48 -c 2 -a 0 -i 0 -k RTR
r -t 1.005327236 -s 0 -d -1 -p AODV -e 48 -c 2 -a 0 -i 0 -k RTR
+ -t 1.005400352 -s 2 -d -1 -p AODV -e 48 -c 2 -a 0 -i 0 -k RTR 
- -t 1.005400352 -s 2 -d -1 -p AODV -e 48 -c 2 -a 0 -i 0 -k RTR
h -t 1.005400352 -s 2 -d -1 -p AODV -e 48 -c 2 -a 0 -i 0 -k RTR
+ -t 1.005754974 -s 3 -d -1 -p AODV -e 48 -c 2 -a 0 -i 0 -k RTR 
- -t 1.005754974 -s 3 -d -1 -p AODV -e 48 -c 2 -a 0 -i 0 -k RTR
h -t 1.005754974 -s 3 -d -1 -p AODV -e 48 -c 2 -a 0 -i 0 -k RTR
r -t 1.006708685 -s 10 -d -1 -p AODV -e 48 -c 2 -a 0 -i 0 -k RTR
r -t 1.006708916 -s 17 -d -1 -p AODV -e 48 -c 2 -a 0 -i 0 -k RTR
r -t 1.006708922 -s 11 -d -1 -p AODV -e 48 -c 2 -a 0 -i 0 -k RTR
r -t 1.006708971 -s 0 -d -1 -p AODV -e 48 -c 2 -a 0 -i 0 -k RTR
r -t 1.006709029 -s 13 -d -1 -p AODV -e 48 -c 2 -a 0 -i 0 -k RTR
+ -t 1.006968481 -s 7 -d -1 -p AODV -e 48 -c 2 -a 0 -i 0 -k RTR 
- -t 1.006968481 -s 7 -d -1 -p AODV -e 48 -c 2 -a 0 -i 0 -k RTR
h -t 1.006968481 -s 7 -d -1 -p AODV -e 48 -c 2 -a 0 -i 0 -k RTR
+ -t 1.007650311 -s 11 -d -1 -p AODV -e 48 -c 2 -a 0 -i 0 -k RTR 
- -t 1.007650311 -s 11 -d -1 -p AODV -e 48 -c 2 -a 0 -i 0 -k RTR
h -t 1.007650311 -s 11 -d -1 -p AODV -e 48 -c 2 -a 0 -i 0 -k RTR
r -t 1.008211869 -s 19 -d -1 -p AODV -e 48 -c 2 -a 0 -i 0 -k RTR
r -t 1.008211998 -s 4 -d -1 -p AODV -e 48 -c 2 -a 0 -i 0 -k RTR
+ -t 1.008211998 -s 4 -d 3 -p AODV -e 44 -c 2 -a 0 -i 0 -k RTR 
- -t 1.008211998 -s 4 -d 3 -p AODV -e 44 -c 2 -a 0 -i 0 -k RTR
h -t 1.008211998 -s 4 -d 3 -p AODV -e 44 -c 2 -a 0 -i 0 -k RTR
r -t 1.008212057 -s 13 -d -1 -p AODV -e 48 -c 2 -a 0 -i 0 -k RTR
+ -t 1.008456968 -s 17 -d -1 -p AODV -e 48 -c 2 -a 0 -i 0 -k RTR 
- -t 1.008456968 -s 17 -d -1 -p AODV -e 48 -c 2 -a 0 -i 0 -k RTR
h -t 1.008456968 -s 17 -d -1 -p AODV -e 48 -c 2 -a 0 -i 0 -k RTR
+ -t 1.008980344 -s 10 -d -1 -p AODV -e 48 -c 2 -a 0 -i 0 -k RTR 
- -t 1.008980344 -s 10 -d -1 -p AODV -e 48 -c 2 -a 0 -i 0 -k RTR
h -t 1.008980344 -s 10 -d -1 -p AODV -e 48 -c 2 -a 0 -i 0 -k RTR
+ -t 1.009406909 -s 18 -d -1 -p AODV -e 48 -c 2 -a 0 -i 0 -k RTR 
- -t 1.009406909 -s 18 -d -1 -p AODV -e 48 -c 2 -a 0 -i 0 -k RTR
h -t 1.009406909 -s 18 -d -1 -p AODV -e 48 -c 2 -a 0 -i 0 -k RTR
r -t 1.010935372 -s 9 -d -1 -p AODV -e 48 -c 2 -a 0 -i 0 -k RTR
+ -t 1.011727807 -s 19 -d -1 -p AODV -e 48 -c 2 -a 0 -i 0 -k RTR 
- -t 1.011727807 -s 19 -d -1 -p AODV -e 48 -c 2 -a 0 -i 0 -k RTR
h -t 1.011727807 -s 19 -d -1 -p AODV -e 48 -c 2 -a 0 -i 0 -k RTR
+ -t 1.012713799 -s 3 -d 13 -p AODV -e 44 -c 2 -a 0 -i 0 -k RTR 
- -t 1.012713799 -s 3 -d 13 -p AODV -e 44 -c 2 -a 0 -i 0 -k RTR
h -t 1.012713799 -s 3 -d 13 -p AODV -e 44 -c 2 -a 0 -i 0 -k RTR
r -t 1.015044629 -s 3 -d -1 -p AODV -e 48 -c 2 -a 0 -i 0 -k RTR
r -t 1.015044645 -s 4 -d -1 -p AODV -e 48 -c 2 -a 0 -i 0 -k RTR
r -t 1.015044918 -s 13 -d -1 -p AODV -e 48 -c 2 -a 0 -i 0 -k RTR
r -t 1.015044918 -s 6 -d -1 -p AODV -e 48 -c 2 -a 0 -i 0 -k RTR
+ -t 1.018738530 -s 13 -d 0 -p AODV -e 44 -c 2 -a 0 -i 0 -k RTR 
- -t 1.018738530 -s 13 -d 0 -p AODV -e 44 -c 2 -a 0 -i 0 -k RTR
h -t 1.018738530 -s 13 -d 0 -p AODV -e 44 -c 2 -a 0 -i 0 -k RTR
+ -t 1.019100109 -s 6 -d -1 -p AODV -e 48 -c 2 -a 0 -i 0 -k RTR 
- -t 1.019100109 -s 6 -d -1 -p AODV -e 48 -c 2 -a 0 -i 0 -k RTR
h -t 1.019100109 -s 6 -d -1 -p AODV -e 48 -c 2 -a 0 -i 0 -k RTR
r -t 1.020829730 -s 13 -d -1 -p AODV -e 48 -c 2 -a 0 -i 0 -k RTR
r -t 1.020829782 -s 5 -d -1 -p AODV -e 48 -c 2 -a 0 -i 0 -k RTR
r -t 1.020829878 -s 15 -d -1 -p AODV -e 48 -c 2 -a 0 -i 0 -k RTR
+ -t 1.020937865 -s 5 -d -1 -p AODV -e 48 -c 2 -a 0 -i 0 -k RTR 
- -t 1.020937865 -s 5 -d -1 -p AODV -e 48 -c 2 -a 0 -i 0 -k RTR
h -t 1.020937865 -s 5 -d -1 -p AODV -e 48 -c 2 -a 0 -i 0 -k RTR
r -t 1.021374410 -s 12 -d -1 -p AODV -e 48 -c 2 -a 0 -i 0 -k RTR
r -t 1.022386199 -s 15 -d -1 -p AODV -e 48 -c 2 -a 0 -i 0 -k RTR
r -t 1.022386505 -s 14 -d -1 -p AODV -e 48 -c 2 -a 0 -i 0 -k RTR
r -t 1.022386517 -s 7 -d -1 -p AODV -e 48 -c 2 -a 0 -i 0 -k RTR
r -t 1.022817745 -s 11 -d -1 -p AODV -e 48 -c 2 -a 0 -i 0 -k RTR
r -t 1.022817746 -s 17 -d -1 -p AODV -e 48 -c 2 -a 0 -i 0 -k RTR
r -t 1.023735917 -s 17 -d -1 -p AODV -e 48 -c 2 -a 0 -i 0 -k RTR
r -t 1.023735988 -s 10 -d -1 -p AODV -e 48 -c 2 -a 0 -i 0 -k RTR
r -t 1.023736315 -s 2 -d -1 -p AODV -e 48 -c 2 -a 0 -i 0 -k RTR
r -t 1.024674088 -s 11 -d -1 -p AODV -e 48 -c 2 -a 0 -i 0 -k RTR
r -t 1.024674161 -s 10 -d -1 -p AODV -e 48 -c 2 -a 0 -i 0 -k RTR
r -t 1.024674479 -s 2 -d -1 -p AODV -e 48 -c 2 -a 0 -i 0 -k RTR
+ -t 1.026780152 -s 15 -d -1 -p AODV -e 48 -c 2 -a 0 -i 0 -k RTR 
- -t 1.026780152 -s 15 -d -1 -p AODV -e 48 -c 2 -a 0 -i 0 -k RTR
h -t 1.026780152 -s 15 -d -1 -p AODV -e 48 -c 2 -a 0 -i 0 -k RTR
+ -t 1.028060649 -s 12 -d -1 -p AODV -e 48 -c 2 -a 0 -i 0 -k RTR 
- -t 1.028060649 -s 12 -d -1 -p AODV -e 48 -c 2 -a 0 -i 0 -k RTR
h -t 1.028060649 -s 12 -d -1 -p AODV -e 48 -c 2 -a 0 -i 0 -k RTR
+ -t 1.028813658 -s 0 -d 13 -p tcp -e 40 -c 2 -a 0 -i 0 -k RTR 
- -t 1.028813658 -s 0 -d 13 -p tcp -e 40 -c 2 -a 0 -i 0 -k RTR
h -t 1.028813658 -s 0 -d 13 -p tcp -e 40 -c 2 -a 0 -i 0 -k RTR
+ -t 1.029373238 -s 14 -d -1 -p AODV -e 48 -c 2 -a 0 -i 0 -k RTR 
- -t 1.029373238 -s 14 -d -1 -p AODV -e 48 -c 2 -a 0 -i 0 -k RTR
h -t 1.029373238 -s 14 -d -1 -p AODV -e 48 -c 2 -a 0 -i 0 -k RTR
r -t 1.030377101 -s 6 -d -1 -p AODV -e 48 -c 2 -a 0 -i 0 -k RTR
r -t 1.030621878 -s 5 -d -1 -p AODV -e 48 -c 2 -a 0 -i 0 -k RTR
r -t 1.030621951 -s 15 -d -1 -p AODV -e 48 -c 2 -a 0 -i 0 -k RTR
r -t 1.031753699 -s 5 -d -1 -p AODV -e 48 -c 2 -a 0 -i 0 -k RTR
r -t 1.031754079 -s 14 -d -1 -p AODV -e 48 -c 2 -a 0 -i 0 -k RTR
r -t 1.031754113 -s 7 -d -1 -p AODV -e 48 -c 2 -a 0 -i 0 -k RTR
+ -t 1.034491498 -s 13 -d 3 -p tcp -e 40 -c 2 -a 0 -i 0 -k RTR 
- -t 1.034491498 -s 13 -d 3 -p tcp -e 40 -c 2 -a 0 -i 0 -k RTR
h -t 1.034491498 -s 13 -d 3 -p tcp -e 40 -c 2 -a 0 -i 0 -k RTR
+ -t 1.036617305 -s 3 -d 4 -p tcp -e 40 -c 2 -a 0 -i 0 -k RTR 
- -t 1.036617305 -s 3 -d 4 -p tcp -e 40 -c 2 -a 0 -i 0 -k RTR
h -t 1.036617305 -s 3 -d 4 -p tcp -e 40 -c 2 -a 0 -i 0 -k RTR
r -t 1.038902935 -s 4 -d 4 -p tcp -e 40 -c 2 -a 0 -i 0 -k AGT
+ -t 1.038902935 -s 4 -d -1 -p ack -e 40 -c 2 -a 0 -i 1 -k AGT 
- -t 1.038902935 -s 4 -d -1 -p ack -e 40 -c 2 -a 0 -i 1 -k AGT
h -t 1.038902935 -s 4 -d -1 -p ack -e 40 -c 2 -a 0 -i 1 -k AGT
+ -t 1.038902935 -s 4 -d 3 -p ack -e 40 -c 2 -a 0 -i 1 -k RTR 
- -t 1.038902935 -s 4 -d 3 -p ack -e 40 -c 2 -a 0 -i 1 -k RTR
h -t 1.038902935 -s 4 -d 3 -p ack -e 40 -c 2 -a 0 -i 1 -k RTR
+ -t 1.040928564 -s 3 -d 13 -p ack -e 40 -c 2 -a 0 -i 1 -k RTR 
- -t 1.040928564 -s 3 -d 13 -p ack -e 40 -c 2 -a 0 -i 1 -k RTR
h -t 1.040928564 -s 3 -d 13 -p ack -e 40 -c 2 -a 0 -i 1 -k RTR
+ -t 1.042834371 -s 13 -d 0 -p ack -e 40 -c 2 -a 0 -i 1 -k RTR 
- -t 1.042834371 -s 13 -d 0 -p ack -e 40 -c 2 -a 0 -i 1 -k RTR
h -t 1.042834371 -s 13 -d 0 -p ack -e 40 -c 2 -a 0 -i 1 -k RTR
r -t 1.044860795 -s 0 -d 0 -p ack -e 40 -c 2 -a 0 -i 1 -k AGT
+ -t 1.044860795 -s 0 -d -1 -p tcp -e 1540 -c 2 -a 0 -i 2 -k AGT 
- -t 1.044860795 -s 0 -d -1 -p tcp -e 1540 -c 2 -a 0 -i 2 -k AGT
h -t 1.044860795 -s 0 -d -1 -p tcp -e 1540 -c 2 -a 0 -i 2 -k AGT
+ -t 1.044860795 -s 0 -d -1 -p tcp -e 1540 -c 2 -a 0 -i 3 -k AGT 
- -t 1.044860795 -s 0 -d -1 -p tcp -e 1540 -c 2 -a 0 -i 3 -k AGT
h -t 1.044860795 -s 0 -d -1 -p tcp -e 1540 -c 2 -a 0 -i 3 -k AGT
+ -t 1.044860795 -s 0 -d 13 -p tcp -e 1540 -c 2 -a 0 -i 2 -k RTR 
- -t 1.044860795 -s 0 -d 13 -p tcp -e 1540 -c 2 -a 0 -i 2 -k RTR
h -t 1.044860795 -s 0 -d 13 -p tcp -e 1540 -c 2 -a 0 -i 2 -k RTR
+ -t 1.044860795 -s 0 -d 13 -p tcp -e 1540 -c 2 -a 0 -i 3 -k RTR 
- -t 1.044860795 -s 0 -d 13 -p tcp -e 1540 -c 2 -a 0 -i 3 -k RTR
h -t 1.044860795 -s 0 -d 13 -p tcp -e 1540 -c 2 -a 0 -i 3 -k RTR
+ -t 1.059027219 -s 13 -d 3 -p tcp -e 1540 -c 2 -a 0 -i 2 -k RTR 
- -t 1.059027219 -s 13 -d 3 -p tcp -e 1540 -c 2 -a 0 -i 2 -k RTR
h -t 1.059027219 -s 13 -d 3 -p tcp -e 1540 -c 2 -a 0 -i 2 -k RTR
+ -t 1.072974450 -s 13 -d 3 -p tcp -e 1540 -c 2 -a 0 -i 3 -k RTR 
- -t 1.072974450 -s 13 -d 3 -p tcp -e 1540 -c 2 -a 0 -i 3 -k RTR
h -t 1.072974450 -s 13 -d 3 -p tcp -e 1540 -c 2 -a 0 -i 3 -k RTR
+ -t 1.086960258 -s 3 -d 4 -p tcp -e 1540 -c 2 -a 0 -i 2 -k RTR 
- -t 1.086960258 -s 3 -d 4 -p tcp -e 1540 -c 2 -a 0 -i 2 -k RTR
h -t 1.086960258 -s 3 -d 4 -p tcp -e 1540 -c 2 -a 0 -i 2 -k RTR
+ -t 1.100906670 -s 3 -d 4 -p tcp -e 1540 -c 2 -a 0 -i 3 -k RTR 
- -t 1.100906670 -s 3 -d 4 -p tcp -e 1540 -c 2 -a 0 -i 3 -k RTR
h -t 1.100906670 -s 3 -d 4 -p tcp -e 1540 -c 2 -a 0 -i 3 -k RTR
r -t 1.115192300 -s 4 -d 4 -p tcp -e 1540 -c 2 -a 0 -i 2 -k AGT
+ -t 1.115192300 -s 4 -d -1 -p ack -e 40 -c 2 -a 0 -i 4 -k AGT 
- -t 1.115192300 -s 4 -d -1 -p ack -e 40 -c 2 -a 0 -i 4 -k AGT
h -t 1.115192300 -s 4 -d -1 -p ack -e 40 -c 2 -a 0 -i 4 -k AGT
+ -t 1.115192300 -s 4 -d 3 -p ack -e 40 -c 2 -a 0 -i 4 -k RTR 
- -t 1.115192300 -s 4 -d 3 -p ack -e 40 -c 2 -a 0 -i 4 -k RTR
h -t 1.115192300 -s 4 -d 3 -p ack -e 40 -c 2 -a 0 -i 4 -k RTR
+ -t 1.117457929 -s 3 -d 13 -p ack -e 40 -c 2 -a 0 -i 4 -k RTR 
- -t 1.117457929 -s 3 -d 13 -p ack -e 40 -c 2 -a 0 -i 4 -k RTR
h -t 1.117457929 -s 3 -d 13 -p ack -e 40 -c 2 -a 0 -i 4 -k RTR
r -t 1.131383558 -s 4 -d 4 -p tcp -e 1540 -c 2 -a 0 -i 3 -k AGT
+ -t 1.131383558 -s 4 -d -1 -p ack -e 40 -c 2 -a 0 -i 5 -k AGT 
- -t 1.131383558 -s 4 -d -1 -p ack -e 40 -c 2 -a 0 -i 5 -k AGT
h -t 1.131383558 -s 4 -d -1 -p ack -e 40 -c 2 -a 0 -i 5 -k AGT
+ -t 1.131383558 -s 4 -d 3 -p ack -e 40 -c 2 -a 0 -i 5 -k RTR 
- -t 1.131383558 -s 4 -d 3 -p ack -e 40 -c 2 -a 0 -i 5 -k RTR
h -t 1.131383558 -s 4 -d 3 -p ack -e 40 -c 2 -a 0 -i 5 -k RTR
+ -t 1.133409187 -s 3 -d 13 -p ack -e 40 -c 2 -a 0 -i 5 -k RTR 
- -t 1.133409187 -s 3 -d 13 -p ack -e 40 -c 2 -a 0 -i 5 -k RTR
h -t 1.133409187 -s 3 -d 13 -p ack -e 40 -c 2 -a 0 -i 5 -k RTR
+ -t 1.135334998 -s 13 -d 0 -p ack -e 40 -c 2 -a 0 -i 4 -k RTR 
- -t 1.135334998 -s 13 -d 0 -p ack -e 40 -c 2 -a 0 -i 4 -k RTR
h -t 1.135334998 -s 13 -d 0 -p ack -e 40 -c 2 -a 0 -i 4 -k RTR
+ -t 1.137201413 -s 13 -d 0 -p ack -e 40 -c 2 -a 0 -i 5 -k RTR 
- -t 1.137201413 -s 13 -d 0 -p ack -e 40 -c 2 -a 0 -i 5 -k RTR
h -t 1.137201413 -s 13 -d 0 -p ack -e 40 -c 2 -a 0 -i 5 -k RTR
r -t 1.139327830 -s 0 -d 0 -p ack -e 40 -c 2 -a 0 -i 4 -k AGT
+ -t 1.139327830 -s 0 -d -1 -p tcp -e 1540 -c 2 -a 0 -i 6 -k AGT 
- -t 1.139327830 -s 0 -d -1 -p tcp -e 1540 -c 2 -a 0 -i 6 -k AGT
h -t 1.139327830 -s 0 -d -1 -p tcp -e 1540 -c 2 -a 0 -i 6 -k AGT
+ -t 1.139327830 -s 0 -d -1 -p tcp -e 1540 -c 2 -a 0 -i 7 -k AGT 
- -t 1.139327830 -s 0 -d -1 -p tcp -e 1540 -c 2 -a 0 -i 7 -k AGT
h -t 1.139327830 -s 0 -d -1 -p tcp -e 1540 -c 2 -a 0 -i 7 -k AGT
+ -t 1.139327830 -s 0 -d 13 -p tcp -e 1540 -c 2 -a 0 -i 6 -k RTR 
- -t 1.139327830 -s 0 -d 13 -p tcp -e 1540 -c 2 -a 0 -i 6 -k RTR
h -t 1.139327830 -s 0 -d 13 -p tcp -e 1540 -c 2 -a 0 -i 6 -k RTR
+ -t 1.139327830 -s 0 -d 13 -p tcp -e 1540 -c 2 -a 0 -i 7 -k RTR 
- -t 1.139327830 -s 0 -d 13 -p tcp -e 1540 -c 2 -a 0 -i 7 -k RTR
h -t 1.139327830 -s 0 -d 13 -p tcp -e 1540 -c 2 -a 0 -i 7 -k RTR
r -t 1.141335053 -s 0 -d 0 -p ack -e 40 -c 2 -a 0 -i 5 -k AGT
+ -t 1.141335053 -s 0 -d -1 -p tcp -e 1540 -c 2 -a 0 -i 8 -k AGT 
- -t 1.141335053 -s 0 -d -1 -p tcp -e 1540 -c 2 -a 0 -i 8 -k AGT
h -t 1.141335053 -s 0 -d -1 -p tcp -e 1540 -c 2 -a 0 -i 8 -k AGT
+ -t 1.141335053 -s 0 -d -1 -p tcp -e 1540 -c 2 -a 0 -i 9 -k AGT 
- -t 1.141335053 -s 0 -d -1 -p tcp -e 1540 -c 2 -a 0 -i 9 -k AGT
h -t 1.141335053 -s 0 -d -1 -p tcp -e 1540 -c 2 -a 0 -i 9 -k AGT
+ -t 1.141335053 -s 0 -d 13 -p tcp -e 1540 -c 2 -a 0 -i 8 -k RTR 
- -t 1.141335053 -s 0 -d 13 -p tcp -e 1540 -c 2 -a 0 -i 8 -k RTR
h -t 1.141335053 -s 0 -d 13 -p tcp -e 1540 -c 2 -a 0 -i 8 -k RTR
+ -t 1.141335053 -s 0 -d 13 -p tcp -e 1540 -c 2 -a 0 -i 9 -k RTR 
- -t 1.141335053 -s 0 -d 13 -p tcp -e 1540 -c 2 -a 0 -i 9 -k RTR
h -t 1.141335053 -s 0 -d 13 -p tcp -e 1540 -c 2 -a 0 -i 9 -k RTR
+ -t 1.155201471 -s 13 -d 3 -p tcp -e 1540 -c 2 -a 0 -i 6 -k RTR 
- -t 1.155201471 -s 13 -d 3 -p tcp -e 1540 -c 2 -a 0 -i 6 -k RTR
h -t 1.155201471 -s 13 -d 3 -p tcp -e 1540 -c 2 -a 0 -i 6 -k RTR
+ -t 1.169167282 -s 3 -d 4 -p tcp -e 1540 -c 2 -a 0 -i 6 -k RTR 
- -t 1.169167282 -s 3 -d 4 -p tcp -e 1540 -c 2 -a 0 -i 6 -k RTR
h -t 1.169167282 -s 3 -d 4 -p tcp -e 1540 -c 2 -a 0 -i 6 -k RTR
r -t 1.183192911 -s 4 -d 4 -p tcp -e 1540 -c 2 -a 0 -i 6 -k AGT
+ -t 1.183192911 -s 4 -d -1 -p ack -e 40 -c 2 -a 0 -i 10 -k AGT 
- -t 1.183192911 -s 4 -d -1 -p ack -e 40 -c 2 -a 0 -i 10 -k AGT
h -t 1.183192911 -s 4 -d -1 -p ack -e 40 -c 2 -a 0 -i 10 -k AGT
+ -t 1.183192911 -s 4 -d 3 -p ack -e 40 -c 2 -a 0 -i 10 -k RTR 
- -t 1.183192911 -s 4 -d 3 -p ack -e 40 -c 2 -a 0 -i 10 -k RTR
h -t 1.183192911 -s 4 -d 3 -p ack -e 40 -c 2 -a 0 -i 10 -k RTR
+ -t 1.185078541 -s 3 -d 13 -p ack -e 40 -c 2 -a 0 -i 10 -k RTR 
- -t 1.185078541 -s 3 -d 13 -p ack -e 40 -c 2 -a 0 -i 10 -k RTR
h -t 1.185078541 -s 3 -d 13 -p ack -e 40 -c 2 -a 0 -i 10 -k RTR
+ -t 1.186964353 -s 13 -d 0 -p ack -e 40 -c 2 -a 0 -i 10 -k RTR 
- -t 1.186964353 -s 13 -d 0 -p ack -e 40 -c 2 -a 0 -i 10 -k RTR
h -t 1.186964353 -s 13 -d 0 -p ack -e 40 -c 2 -a 0 -i 10 -k RTR
r -t 1.188990767 -s 0 -d 0 -p ack -e 40 -c 2 -a 0 -i 10 -k AGT
+ -t 1.188990767 -s 0 -d -1 -p tcp -e 1540 -c 2 -a 0 -i 11 -k AGT 
- -t 1.188990767 -s 0 -d -1 -p tcp -e 1540 -c 2 -a 0 -i 11 -k AGT
h -t 1.188990767 -s 0 -d -1 -p tcp -e 1540 -c 2 -a 0 -i 11 -k AGT
+ -t 1.188990767 -s 0 -d -1 -p tcp -e 1540 -c 2 -a 0 -i 12 -k AGT 
- -t 1.188990767 -s 0 -d -1 -p tcp -e 1540 -c 2 -a 0 -i 12 -k AGT
h -t 1.188990767 -s 0 -d -1 -p tcp -e 1540 -c 2 -a 0 -i 12 -k AGT
+ -t 1.188990767 -s 0 -d 13 -p tcp -e 1540 -c 2 -a 0 -i 11 -k RTR 
- -t 1.188990767 -s 0 -d 13 -p tcp -e 1540 -c 2 -a 0 -i 11 -k RTR
h -t 1.188990767 -s 0 -d 13 -p tcp -e 1540 -c 2 -a 0 -i 11 -k RTR
+ -t 1.188990767 -s 0 -d 13 -p tcp -e 1540 -c 2 -a 0 -i 12 -k RTR 
- -t 1.188990767 -s 0 -d 13 -p tcp -e 1540 -c 2 -a 0 -i 12 -k RTR
h -t 1.188990767 -s 0 -d 13 -p tcp -e 1540 -c 2 -a 0 -i 12 -k RTR
+ -t 1.202997181 -s 13 -d 3 -p tcp -e 1540 -c 2 -a 0 -i 7 -k RTR 
- -t 1.202997181 -s 13 -d 3 -p tcp -e 1540 -c 2 -a 0 -i 7 -k RTR
h -t 1.202997181 -s 13 -d 3 -p tcp -e 1540 -c 2 -a 0 -i 7 -k RTR
+ -t 1.216962995 -s 3 -d 4 -p tcp -e 1540 -c 2 -a 0 -i 7 -k RTR 
- -t 1.216962995 -s 3 -d 4 -p tcp -e 1540 -c 2 -a 0 -i 7 -k RTR
h -t 1.216962995 -s 3 -d 4 -p tcp -e 1540 -c 2 -a 0 -i 7 -k RTR
r -t 1.231108624 -s 4 -d 4 -p tcp -e 1540 -c 2 -a 0 -i 7 -k AGT
+ -t 1.231108624 -s 4 -d -1 -p ack -e 40 -c 2 -a 0 -i 13 -k AGT 
- -t 1.231108624 -s 4 -d -1 -p ack -e 40 -c 2 -a 0 -i 13 -k AGT
h -t 1.231108624 -s 4 -d -1 -p ack -e 40 -c 2 -a 0 -i 13 -k AGT
+ -t 1.231108624 -s 4 -d 3 -p ack -e 40 -c 2 -a 0 -i 13 -k RTR 
- -t 1.231108624 -s 4 -d 3 -p ack -e 40 -c 2 -a 0 -i 13 -k RTR
h -t 1.231108624 -s 4 -d 3 -p ack -e 40 -c 2 -a 0 -i 13 -k RTR
+ -t 1.233434253 -s 3 -d 13 -p ack -e 40 -c 2 -a 0 -i 13 -k RTR 
- -t 1.233434253 -s 3 -d 13 -p ack -e 40 -c 2 -a 0 -i 13 -k RTR
h -t 1.233434253 -s 3 -d 13 -p ack -e 40 -c 2 -a 0 -i 13 -k RTR
+ -t 1.235420068 -s 13 -d 0 -p ack -e 40 -c 2 -a 0 -i 13 -k RTR 
- -t 1.235420068 -s 13 -d 0 -p ack -e 40 -c 2 -a 0 -i 13 -k RTR
h -t 1.235420068 -s 13 -d 0 -p ack -e 40 -c 2 -a 0 -i 13 -k RTR
+ -t 1.249417274 -s 13 -d 3 -p tcp -e 1540 -c 2 -a 0 -i 8 -k RTR 
- -t 1.249417274 -s 13 -d 3 -p tcp -e 1540 -c 2 -a 0 -i 8 -k RTR
h -t 1.249417274 -s 13 -d 3 -p tcp -e 1540 -c 2 -a 0 -i 8 -k RTR
+ -t 1.263244487 -s 13 -d 3 -p tcp -e 1540 -c 2 -a 0 -i 9 -k RTR 
- -t 1.263244487 -s 13 -d 3 -p tcp -e 1540 -c 2 -a 0 -i 9 -k RTR
h -t 1.263244487 -s 13 -d 3 -p tcp -e 1540 -c 2 -a 0 -i 9 -k RTR
+ -t 1.277131699 -s 13 -d 3 -p tcp -e 1540 -c 2 -a 0 -i 11 -k RTR 
- -t 1.277131699 -s 13 -d 3 -p tcp -e 1540 -c 2 -a 0 -i 11 -k RTR
h -t 1.277131699 -s 13 -d 3 -p tcp -e 1540 -c 2 -a 0 -i 11 -k RTR
r -t 1.278998106 -s 0 -d 0 -p ack -e 40 -c 2 -a 0 -i 13 -k AGT
+ -t 1.278998106 -s 0 -d -1 -p tcp -e 1540 -c 2 -a 0 -i 14 -k AGT 
- -t 1.278998106 -s 0 -d -1 -p tcp -e 1540 -c 2 -a 0 -i 14 -k AGT
h -t 1.278998106 -s 0 -d -1 -p tcp -e 1540 -c 2 -a 0 -i 14 -k AGT
+ -t 1.278998106 -s 0 -d -1 -p tcp -e 1540 -c 2 -a 0 -i 15 -k AGT 
- -t 1.278998106 -s 0 -d -1 -p tcp -e 1540 -c 2 -a 0 -i 15 -k AGT
h -t 1.278998106 -s 0 -d -1 -p tcp -e 1540 -c 2 -a 0 -i 15 -k AGT
+ -t 1.278998106 -s 0 -d 13 -p tcp -e 1540 -c 2 -a 0 -i 14 -k RTR 
- -t 1.278998106 -s 0 -d 13 -p tcp -e 1540 -c 2 -a 0 -i 14 -k RTR
h -t 1.278998106 -s 0 -d 13 -p tcp -e 1540 -c 2 -a 0 -i 14 -k RTR
+ -t 1.278998106 -s 0 -d 13 -p tcp -e 1540 -c 2 -a 0 -i 15 -k RTR 
- -t 1.278998106 -s 0 -d 13 -p tcp -e 1540 -c 2 -a 0 -i 15 -k RTR
h -t 1.278998106 -s 0 -d 13 -p tcp -e 1540 -c 2 -a 0 -i 15 -k RTR
+ -t 1.293324514 -s 13 -d 3 -p tcp -e 1540 -c 2 -a 0 -i 12 -k RTR 
- -t 1.293324514 -s 13 -d 3 -p tcp -e 1540 -c 2 -a 0 -i 12 -k RTR
h -t 1.293324514 -s 13 -d 3 -p tcp -e 1540 -c 2 -a 0 -i 12 -k RTR
+ -t 1.307270331 -s 3 -d 4 -p tcp -e 1540 -c 2 -a 0 -i 8 -k RTR 
- -t 1.307270331 -s 3 -d 4 -p tcp -e 1540 -c 2 -a 0 -i 8 -k RTR
h -t 1.307270331 -s 3 -d 4 -p tcp -e 1540 -c 2 -a 0 -i 8 -k RTR
+ -t 1.321882754 -s 3 -d 4 -p tcp -e 1540 -c 2 -a 0 -i 9 -k RTR 
- -t 1.321882754 -s 3 -d 4 -p tcp -e 1540 -c 2 -a 0 -i 9 -k RTR
h -t 1.321882754 -s 3 -d 4 -p tcp -e 1540 -c 2 -a 0 -i 9 -k RTR
+ -t 1.335729178 -s 3 -d 4 -p tcp -e 1540 -c 2 -a 0 -i 11 -k RTR 
- -t 1.335729178 -s 3 -d 4 -p tcp -e 1540 -c 2 -a 0 -i 11 -k RTR
h -t 1.335729178 -s 3 -d 4 -p tcp -e 1540 -c 2 -a 0 -i 11 -k RTR
+ -t 1.349575602 -s 3 -d 4 -p tcp -e 1540 -c 2 -a 0 -i 12 -k RTR 
- -t 1.349575602 -s 3 -d 4 -p tcp -e 1540 -c 2 -a 0 -i 12 -k RTR
h -t 1.349575602 -s 3 -d 4 -p tcp -e 1540 -c 2 -a 0 -i 12 -k RTR
r -t 1.363601232 -s 4 -d 4 -p tcp -e 1540 -c 2 -a 0 -i 8 -k AGT
+ -t 1.363601232 -s 4 -d -1 -p ack -e 40 -c 2 -a 0 -i 16 -k AGT 
- -t 1.363601232 -s 4 -d -1 -p ack -e 40 -c 2 -a 0 -i 16 -k AGT
h -t 1.363601232 -s 4 -d -1 -p ack -e 40 -c 2 -a 0 -i 16 -k AGT
+ -t 1.363601232 -s 4 -d 3 -p ack -e 40 -c 2 -a 0 -i 16 -k RTR 
- -t 1.363601232 -s 4 -d 3 -p ack -e 40 -c 2 -a 0 -i 16 -k RTR
h -t 1.363601232 -s 4 -d 3 -p ack -e 40 -c 2 -a 0 -i 16 -k RTR
r -t 1.377807404 -s 4 -d 4 -p tcp -e 1540 -c 2 -a 0 -i 9 -k AGT
+ -t 1.377807404 -s 4 -d -1 -p ack -e 40 -c 2 -a 0 -i 17 -k AGT 
- -t 1.377807404 -s 4 -d -1 -p ack -e 40 -c 2 -a 0 -i 17 -k AGT
h -t 1.377807404 -s 4 -d -1 -p ack -e 40 -c 2 -a 0 -i 17 -k AGT
+ -t 1.377807404 -s 4 -d 3 -p ack -e 40 -c 2 -a 0 -i 17 -k RTR 
- -t 1.377807404 -s 4 -d 3 -p ack -e 40 -c 2 -a 0 -i 17 -k RTR
h -t 1.377807404 -s 4 -d 3 -p ack -e 40 -c 2 -a 0 -i 17 -k RTR
+ -t 1.379693033 -s 3 -d 13 -p ack -e 40 -c 2 -a 0 -i 16 -k RTR 
- -t 1.379693033 -s 3 -d 13 -p ack -e 40 -c 2 -a 0 -i 16 -k RTR
h -t 1.379693033 -s 3 -d 13 -p ack -e 40 -c 2 -a 0 -i 16 -k RTR
+ -t 1.381839206 -s 3 -d 13 -p ack -e 40 -c 2 -a 0 -i 17 -k RTR 
- -t 1.381839206 -s 3 -d 13 -p ack -e 40 -c 2 -a 0 -i 17 -k RTR
h -t 1.381839206 -s 3 -d 13 -p ack -e 40 -c 2 -a 0 -i 17 -k RTR
r -t 1.395764835 -s 4 -d 4 -p tcp -e 1540 -c 2 -a 0 -i 11 -k AGT
+ -t 1.395764835 -s 4 -d -1 -p ack -e 40 -c 2 -a 0 -i 18 -k AGT 
- -t 1.395764835 -s 4 -d -1 -p ack -e 40 -c 2 -a 0 -i 18 -k AGT
h -t 1.395764835 -s 4 -d -1 -p ack -e 40 -c 2 -a 0 -i 18 -k AGT
+ -t 1.395764835 -s 4 -d 3 -p ack -e 40 -c 2 -a 0 -i 18 -k RTR 
- -t 1.395764835 -s 4 -d 3 -p ack -e 40 -c 2 -a 0 -i 18 -k RTR
h -t 1.395764835 -s 4 -d 3 -p ack -e 40 -c 2 -a 0 -i 18 -k RTR
+ -t 1.397670464 -s 3 -d 13 -p ack -e 40 -c 2 -a 0 -i 18 -k RTR 
- -t 1.397670464 -s 3 -d 13 -p ack -e 40 -c 2 -a 0 -i 18 -k RTR
h -t 1.397670464 -s 3 -d 13 -p ack -e 40 -c 2 -a 0 -i 18 -k RTR
r -t 1.411956094 -s 4 -d 4 -p tcp -e 1540 -c 2 -a 0 -i 12 -k AGT
+ -t 1.411956094 -s 4 -d -1 -p ack -e 40 -c 2 -a 0 -i 19 -k AGT 
- -t 1.411956094 -s 4 -d -1 -p ack -e 40 -c 2 -a 0 -i 19 -k AGT
h -t 1.411956094 -s 4 -d -1 -p ack -e 40 -c 2 -a 0 -i 19 -k AGT
+ -t 1.411956094 -s 4 -d 3 -p ack -e 40 -c 2 -a 0 -i 19 -k RTR 
- -t 1.411956094 -s 4 -d 3 -p ack -e 40 -c 2 -a 0 -i 19 -k RTR
h -t 1.411956094 -s 4 -d 3 -p ack -e 40 -c 2 -a 0 -i 19 -k RTR
+ -t 1.413921723 -s 3 -d 13 -p ack -e 40 -c 2 -a 0 -i 19 -k RTR 
- -t 1.413921723 -s 3 -d 13 -p ack -e 40 -c 2 -a 0 -i 19 -k RTR
h -t 1.413921723 -s 3 -d 13 -p ack -e 40 -c 2 -a 0 -i 19 -k RTR
+ -t 1.415847544 -s 13 -d 0 -p ack -e 40 -c 2 -a 0 -i 16 -k RTR 
- -t 1.415847544 -s 13 -d 0 -p ack -e 40 -c 2 -a 0 -i 16 -k RTR
h -t 1.415847544 -s 13 -d 0 -p ack -e 40 -c 2 -a 0 -i 16 -k RTR
+ -t 1.417673973 -s 13 -d 0 -p ack -e 40 -c 2 -a 0 -i 17 -k RTR 
- -t 1.417673973 -s 13 -d 0 -p ack -e 40 -c 2 -a 0 -i 17 -k RTR
h -t 1.417673973 -s 13 -d 0 -p ack -e 40 -c 2 -a 0 -i 17 -k RTR
r -t 1.419600371 -s 0 -d 0 -p ack -e 40 -c 2 -a 0 -i 16 -k AGT
+ -t 1.419600371 -s 0 -d -1 -p tcp -e 1540 -c 2 -a 0 -i 20 -k AGT 
- -t 1.419600371 -s 0 -d -1 -p tcp -e 1540 -c 2 -a 0 -i 20 -k AGT
h -t 1.419600371 -s 0 -d -1 -p tcp -e 1540 -c 2 -a 0 -i 20 -k AGT
+ -t 1.419600371 -s 0 -d -1 -p tcp -e 1540 -c 2 -a 0 -i 21 -k AGT 
- -t 1.419600371 -s 0 -d -1 -p tcp -e 1540 -c 2 -a 0 -i 21 -k AGT
h -t 1.419600371 -s 0 -d -1 -p tcp -e 1540 -c 2 -a 0 -i 21 -k AGT
+ -t 1.419600371 -s 0 -d 13 -p tcp -e 1540 -c 2 -a 0 -i 20 -k RTR 
- -t 1.419600371 -s 0 -d 13 -p tcp -e 1540 -c 2 -a 0 -i 20 -k RTR
h -t 1.419600371 -s 0 -d 13 -p tcp -e 1540 -c 2 -a 0 -i 20 -k RTR
+ -t 1.419600371 -s 0 -d 13 -p tcp -e 1540 -c 2 -a 0 -i 21 -k RTR 
- -t 1.419600371 -s 0 -d 13 -p tcp -e 1540 -c 2 -a 0 -i 21 -k RTR
h -t 1.419600371 -s 0 -d 13 -p tcp -e 1540 -c 2 -a 0 -i 21 -k RTR
+ -t 1.433626769 -s 13 -d 3 -p tcp -e 1540 -c 2 -a 0 -i 14 -k RTR 
- -t 1.433626769 -s 13 -d 3 -p tcp -e 1540 -c 2 -a 0 -i 14 -k RTR
h -t 1.433626769 -s 13 -d 3 -p tcp -e 1540 -c 2 -a 0 -i 14 -k RTR
r -t 1.435833166 -s 0 -d 0 -p ack -e 40 -c 2 -a 0 -i 17 -k AGT
+ -t 1.435833166 -s 0 -d -1 -p tcp -e 1540 -c 2 -a 0 -i 22 -k AGT 
- -t 1.435833166 -s 0 -d -1 -p tcp -e 1540 -c 2 -a 0 -i 22 -k AGT
h -t 1.435833166 -s 0 -d -1 -p tcp -e 1540 -c 2 -a 0 -i 22 -k AGT
+ -t 1.435833166 -s 0 -d -1 -p tcp -e 1540 -c 2 -a 0 -i 23 -k AGT 
- -t 1.435833166 -s 0 -d -1 -p tcp -e 1540 -c 2 -a 0 -i 23 -k AGT
h -t 1.435833166 -s 0 -d -1 -p tcp -e 1540 -c 2 -a 0 -i 23 -k AGT
+ -t 1.435833166 -s 0 -d 13 -p tcp -e 1540 -c 2 -a 0 -i 22 -k RTR 
- -t 1.435833166 -s 0 -d 13 -p tcp -e 1540 -c 2 -a 0 -i 22 -k RTR
h -t 1.435833166 -s 0 -d 13 -p tcp -e 1540 -c 2 -a 0 -i 22 -k RTR
+ -t 1.435833166 -s 0 -d 13 -p tcp -e 1540 -c 2 -a 0 -i 23 -k RTR 
- -t 1.435833166 -s 0 -d 13 -p tcp -e 1540 -c 2 -a 0 -i 23 -k RTR
h -t 1.435833166 -s 0 -d 13 -p tcp -e 1540 -c 2 -a 0 -i 23 -k RTR
+ -t 1.449879563 -s 13 -d 3 -p tcp -e 1540 -c 2 -a 0 -i 15 -k RTR 
- -t 1.449879563 -s 13 -d 3 -p tcp -e 1540 -c 2 -a 0 -i 15 -k RTR
h -t 1.449879563 -s 13 -d 3 -p tcp -e 1540 -c 2 -a 0 -i 15 -k RTR
+ -t 1.451875984 -s 13 -d 0 -p ack -e 40 -c 2 -a 0 -i 18 -k RTR 
- -t 1.451875984 -s 13 -d 0 -p ack -e 40 -c 2 -a 0 -i 18 -k RTR
h -t 1.451875984 -s 13 -d 0 -p ack -e 40 -c 2 -a 0 -i 18 -k RTR
+ -t 1.465813170 -s 13 -d 3 -p tcp -e 1540 -c 2 -a 0 -i 20 -k RTR 
- -t 1.465813170 -s 13 -d 3 -p tcp -e 1540 -c 2 -a 0 -i 20 -k RTR
h -t 1.465813170 -s 13 -d 3 -p tcp -e 1540 -c 2 -a 0 -i 20 -k RTR
+ -t 1.479758994 -s 3 -d 4 -p tcp -e 1540 -c 2 -a 0 -i 14 -k RTR 
- -t 1.479758994 -s 3 -d 4 -p tcp -e 1540 -c 2 -a 0 -i 14 -k RTR
h -t 1.479758994 -s 3 -d 4 -p tcp -e 1540 -c 2 -a 0 -i 14 -k RTR
+ -t 1.493825425 -s 3 -d 4 -p tcp -e 1540 -c 2 -a 0 -i 15 -k RTR 
- -t 1.493825425 -s 3 -d 4 -p tcp -e 1540 -c 2 -a 0 -i 15 -k RTR
h -t 1.493825425 -s 3 -d 4 -p tcp -e 1540 -c 2 -a 0 -i 15 -k RTR
+ -t 1.495771250 -s 13 -d 0 -p ack -e 40 -c 2 -a 0 -i 19 -k RTR 
- -t 1.495771250 -s 13 -d 0 -p ack -e 40 -c 2 -a 0 -i 19 -k RTR
h -t 1.495771250 -s 13 -d 0 -p ack -e 40 -c 2 -a 0 -i 19 -k RTR
+ -t 1.509688432 -s 13 -d 3 -p tcp -e 1540 -c 2 -a 0 -i 21 -k RTR 
- -t 1.509688432 -s 13 -d 3 -p tcp -e 1540 -c 2 -a 0 -i 21 -k RTR
h -t 1.509688432 -s 13 -d 3 -p tcp -e 1540 -c 2 -a 0 -i 21 -k RTR
r -t 1.523584661 -s 4 -d 4 -p tcp -e 1540 -c 2 -a 0 -i 14 -k AGT
+ -t 1.523584661 -s 4 -d -1 -p ack -e 40 -c 2 -a 0 -i 24 -k AGT 
- -t 1.523584661 -s 4 -d -1 -p ack -e 40 -c 2 -a 0 -i 24 -k AGT
h -t 1.523584661 -s 4 -d -1 -p ack -e 40 -c 2 -a 0 -i 24 -k AGT
+ -t 1.523584661 -s 4 -d 3 -p ack -e 40 -c 2 -a 0 -i 24 -k RTR 
- -t 1.523584661 -s 4 -d 3 -p ack -e 40 -c 2 -a 0 -i 24 -k RTR
h -t 1.523584661 -s 4 -d 3 -p ack -e 40 -c 2 -a 0 -i 24 -k RTR
+ -t 1.525410290 -s 3 -d 13 -p ack -e 40 -c 2 -a 0 -i 24 -k RTR 
- -t 1.525410290 -s 3 -d 13 -p ack -e 40 -c 2 -a 0 -i 24 -k RTR
h -t 1.525410290 -s 3 -d 13 -p ack -e 40 -c 2 -a 0 -i 24 -k RTR
r -t 1.527547205 -s 0 -d 0 -p ack -e 40 -c 2 -a 0 -i 18 -k AGT
+ -t 1.527547205 -s 0 -d -1 -p tcp -e 1540 -c 2 -a 0 -i 25 -k AGT 
- -t 1.527547205 -s 0 -d -1 -p tcp -e 1540 -c 2 -a 0 -i 25 -k AGT
h -t 1.527547205 -s 0 -d -1 -p tcp -e 1540 -c 2 -a 0 -i 25 -k AGT
+ -t 1.527547205 -s 0 -d -1 -p tcp -e 1540 -c 2 -a 0 -i 26 -k AGT 
- -t 1.527547205 -s 0 -d -1 -p tcp -e 1540 -c 2 -a 0 -i 26 -k AGT
h -t 1.527547205 -s 0 -d -1 -p tcp -e 1540 -c 2 -a 0 -i 26 -k AGT
+ -t 1.527547205 -s 0 -d 13 -p tcp -e 1540 -c 2 -a 0 -i 25 -k RTR 
- -t 1.527547205 -s 0 -d 13 -p tcp -e 1540 -c 2 -a 0 -i 25 -k RTR
h -t 1.527547205 -s 0 -d 13 -p tcp -e 1540 -c 2 -a 0 -i 25 -k RTR
+ -t 1.527547205 -s 0 -d 13 -p tcp -e 1540 -c 2 -a 0 -i 26 -k RTR 
- -t 1.527547205 -s 0 -d 13 -p tcp -e 1540 -c 2 -a 0 -i 26 -k RTR
h -t 1.527547205 -s 0 -d 13 -p tcp -e 1540 -c 2 -a 0 -i 26 -k RTR
+ -t 1.541493596 -s 13 -d 3 -p tcp -e 1540 -c 2 -a 0 -i 22 -k RTR 
- -t 1.541493596 -s 13 -d 3 -p tcp -e 1540 -c 2 -a 0 -i 22 -k RTR
h -t 1.541493596 -s 13 -d 3 -p tcp -e 1540 -c 2 -a 0 -i 22 -k RTR
+ -t 1.555320782 -s 13 -d 3 -p tcp -e 1540 -c 2 -a 0 -i 23 -k RTR 
- -t 1.555320782 -s 13 -d 3 -p tcp -e 1540 -c 2 -a 0 -i 23 -k RTR
h -t 1.555320782 -s 13 -d 3 -p tcp -e 1540 -c 2 -a 0 -i 23 -k RTR