M 1.00000 0 (419.00, 202.00, 0.00), (220.00, 218.00), 8.00
M 1.00000 1 (214.00, 428.00, 0.00), (352.00, 102.00), 4.00
M 1.00000 2 (137.00, 77.00, 0.00), (276.00, 592.00), 7.00
M 1.00000 3 (851.00, 394.00, 0.00), (786.00, 664.00), 8.00
M 1.00000 4 (982.00, 120.00, 0.00), (313.00, 697.00), 6.00
M 1.00000 5 (299.00, 417.00, 0.00), (469.00, 376.00), 2.00
M 1.00000 6 (84.00, 179.00, 0.00), (258.00, 56.00), 3.00
M 1.00000 7 (338.00, 811.00, 0.00), (243.00, 814.00), 6.00
M 1.00000 8 (447.00, 481.00, 0.00), (292.00, 68.00), 4.00
M 1.00000 9 (267.00, 424.00, 0.00), (438.00, 66.00), 6.00
s 1.000000000 _0_ AGT  --- 0 tcp 40 [0 0 0 0] ------- [0:0 9:0 32 0] [0 0] 0 0
r 1.000000000 _0_ RTR  --- 0 tcp 40 [0 0 0 0] ------- [0:0 9:0 32 0] [0 0] 0 0
s 1.000000000 _1_ AGT  --- 1 tcp 40 [0 0 0 0] ------- [1:0 8:0 32 0] [0 0] 0 0
r 1.000000000 _1_ RTR  --- 1 tcp 40 [0 0 0 0] ------- [1:0 8:0 32 0] [0 0] 0 0
s 1.000000000 _2_ AGT  --- 2 tcp 40 [0 0 0 0] ------- [2:0 7:0 32 0] [0 0] 0 0
r 1.000000000 _2_ RTR  --- 2 tcp 40 [0 0 0 0] ------- [2:0 7:0 32 0] [0 0] 0 0
s 1.000000000 _3_ AGT  --- 3 tcp 40 [0 0 0 0] ------- [3:0 6:0 32 0] [0 0] 0 0
r 1.000000000 _3_ RTR  --- 3 tcp 40 [0 0 0 0] ------- [3:0 6:0 32 0] [0 0] 0 0
s 1.000000000 _4_ AGT  --- 4 tcp 40 [0 0 0 0] ------- [4:0 5:0 32 0] [0 0] 0 0
r 1.000000000 _4_ RTR  --- 4 tcp 40 [0 0 0 0] ------- [4:0 5:0 32 0] [0 0] 0 0
s 1.000000000 _0_ RTR  --- 0 AODV 48 [0 0 0 0] ------- [0:255 -1:255 30 0] [0x2 1 1 [9 0] [0 4]] (REQUEST)
s 1.000000000 _1_ RTR  --- 0 AODV 48 [0 0 0 0] ------- [1:255 -1:255 30 0] [0x2 1 1 [8 0] [1 4]] (REQUEST)
s 1.000000000 _2_ RTR  --- 0 AODV 48 [0 0 0 0] ------- [2:255 -1:255 30 0] [0x2 1 1 [7 0] [2 4]] (REQUEST)
s 1.000000000 _3_ RTR  --- 0 AODV 48 [0 0 0 0] ------- [3:255 -1:255 30 0] [0x2 1 1 [6 0] [3 4]] (REQUEST)
s 1.000000000 _4_ RTR  --- 0 AODV 48 [0 0 0 0] ------- [4:255 -1:255 30 0] [0x2 1 1 [5 0] [4 4]] (REQUEST)
r 1.000948821 _5_ RTR  --- 0 AODV 48 [0 ffffffff 0 800] ------- [0:255 -1:255 30 0] [0x2 1 1 [9 0] [0 4]] (REQUEST)
r 1.002371194 _9_ RTR  --- 0 AODV 48 [0 ffffffff 1 800] ------- [1:255 -1:255 30 0] [0x2 1 1 [8 0] [1 4]] (REQUEST)
r 1.002371303 _5_ RTR  --- 0 AODV 48 [0 ffffffff 1 800] ------- [1:255 -1:255 30 0] [0x2 1 1 [8 0] [1 4]] (REQUEST)
s 1.003509385 _5_ RTR  --- 0 AODV 48 [0 ffffffff 1 800] ------- [5:255 -1:255 29 0] [0x2 2 1 [8 0] [1 4]] (REQUEST)
r 1.003674598 _6_ RTR  --- 0 AODV 48 [0 ffffffff 2 800] ------- [2:255 -1:255 30 0] [0x2 1 1 [7 0] [2 4]] (REQUEST)
s 1.004615986 _6_ RTR  --- 0 AODV 48 [0 ffffffff 2 800] ------- [6:255 -1:255 29 0] [0x2 2 1 [7 0] [2 4]] (REQUEST)
r 1.005097579 _9_ RTR  --- 0 AODV 48 [0 ffffffff 5 800] ------- [5:255 -1:255 29 0] [0x2 2 1 [8 0] [1 4]] (REQUEST)
r 1.005097756 _1_ RTR  --- 0 AODV 48 [0 ffffffff 5 800] ------- [5:255 -1:255 29 0] [0x2 2 1 [8 0] [1 4]] (REQUEST)
r 1.005098008 _8_ RTR  --- 0 AODV 48 [0 ffffffff 5 800] ------- [5:255 -1:255 29 0] [0x2 2 1 [8 0] [1 4]] (REQUEST)
s 1.005098008 _8_ RTR  --- 0 AODV 44 [0 0 0 0] ------- [8:255 1:255 30 5] [0x4 1 [8 4] 10.000000] (REPLY)
r 1.005098291 _0_ RTR  --- 0 AODV 48 [0 ffffffff 5 800] ------- [5:255 -1:255 29 0] [0x2 2 1 [8 0] [1 4]] (REQUEST)
s 1.007679170 _0_ RTR  --- 0 AODV 48 [0 ffffffff 5 800] ------- [0:255 -1:255 28 0] [0x2 3 1 [8 0] [1 4]] (REQUEST)
s 1.008771871 _9_ RTR  --- 0 AODV 48 [0 ffffffff 1 800] ------- [9:255 -1:255 29 0] [0x2 2 1 [8 0] [1 4]] (REQUEST)
s 1.009312056 _5_ RTR  --- 0 AODV 48 [0 ffffffff 0 800] ------- [5:255 -1:255 29 0] [0x2 2 1 [9 0] [0 4]] (REQUEST)
r 1.009399769 _5_ RTR  --- 0 AODV 44 [13a 5 8 800] ------- [8:255 1:255 30 5] [0x4 1 [8 4] 10.000000] (REPLY)
f 1.009399769 _5_ RTR  --- 0 AODV 44 [13a 5 8 800] ------- [8:255 1:255 29 1] [0x4 2 [8 4] 10.000000] (REPLY)
r 1.010731878 _9_ RTR  --- 0 AODV 48 [0 ffffffff 5 800] ------- [5:255 -1:255 29 0] [0x2 2 1 [9 0] [0 4]] (REQUEST)
s 1.010731878 _9_ RTR  --- 0 AODV 44 [0 0 0 0] ------- [9:255 0:255 30 5] [0x4 1 [9 4] 10.000000] (REPLY)
r 1.010732055 _1_ RTR  --- 0 AODV 48 [0 ffffffff 5 800] ------- [5:255 -1:255 29 0] [0x2 2 1 [9 0] [0 4]] (REQUEST)
r 1.010732307 _8_ RTR  --- 0 AODV 48 [0 ffffffff 5 800] ------- [5:255 -1:255 29 0] [0x2 2 1 [9 0] [0 4]] (REQUEST)
r 1.010732590 _0_ RTR  --- 0 AODV 48 [0 ffffffff 5 800] ------- [5:255 -1:255 29 0] [0x2 2 1 [9 0] [0 4]] (REQUEST)
r 1.012011410 _5_ RTR  --- 0 AODV 48 [0 ffffffff 0 800] ------- [0:255 -1:255 28 0] [0x2 3 1 [8 0] [1 4]] (REQUEST)
s 1.013144311 _1_ RTR  --- 0 AODV 48 [0 ffffffff 5 800] ------- [1:255 -1:255 28 0] [0x2 3 1 [9 0] [0 4]] (REQUEST)
r 1.013907629 _5_ RTR  --- 0 AODV 48 [0 ffffffff 9 800] ------- [9:255 -1:255 29 0] [0x2 2 1 [8 0] [1 4]] (REQUEST)
r 1.013907697 _1_ RTR  --- 0 AODV 48 [0 ffffffff 9 800] ------- [9:255 -1:255 29 0] [0x2 2 1 [8 0] [1 4]] (REQUEST)
r 1.013908149 _8_ RTR  --- 0 AODV 48 [0 ffffffff 9 800] ------- [9:255 -1:255 29 0] [0x2 2 1 [8 0] [1 4]] (REQUEST)
r 1.017258990 _5_ RTR  --- 0 AODV 44 [13a 5 9 800] ------- [9:255 0:255 30 5] [0x4 1 [9 4] 10.000000] (REPLY)
f 1.017258990 _5_ RTR  --- 0 AODV 44 [13a 5 9 800] ------- [9:255 0:255 29 0] [0x4 2 [9 4] 10.000000] (REPLY)
s 1.019243372 _8_ RTR  --- 0 AODV 48 [0 ffffffff 5 800] ------- [8:255 -1:255 28 0] [0x2 3 1 [9 0] [0 4]] (REQUEST)
r 1.019295847 _1_ RTR  --- 0 AODV 44 [13a 1 5 800] ------- [8:255 1:255 29 1] [0x4 2 [8 4] 10.000000] (REPLY)
s 1.019295847 _1_ RTR  --- 1 tcp 40 [0 0 0 0] ------- [1:0 8:0 30 5] [0 0] 0 0
r 1.021346379 _9_ RTR  --- 0 AODV 48 [0 ffffffff 1 800] ------- [1:255 -1:255 28 0] [0x2 3 1 [9 0] [0 4]] (REQUEST)
r 1.021346487 _5_ RTR  --- 0 AODV 48 [0 ffffffff 1 800] ------- [1:255 -1:255 28 0] [0x2 3 1 [9 0] [0 4]] (REQUEST)
r 1.023422307 _5_ RTR  --- 1 tcp 40 [13a 5 1 800] ------- [1:0 8:0 30 5] [0 0] 1 0
f 1.023422307 _5_ RTR  --- 1 tcp 40 [13a 5 1 800] ------- [1:0 8:0 29 8] [0 0] 1 0
r 1.027926036 _2_ RTR  --- 0 AODV 48 [0 ffffffff 6 800] ------- [6:255 -1:255 29 0] [0x2 2 1 [7 0] [2 4]] (REQUEST)
r 1.029822334 _8_ AGT  --- 1 tcp 40 [13a 8 5 800] ------- [1:0 8:0 29 8] [0 0] 2 0
s 1.029822334 _8_ AGT  --- 5 ack 40 [0 0 0 0] ------- [8:0 1:0 32 0] [0 0] 0 0
r 1.029822334 _8_ RTR  --- 5 ack 40 [0 0 0 0] ------- [8:0 1:0 32 0] [0 0] 0 0
s 1.029822334 _8_ RTR  --- 5 ack 40 [0 0 0 0] ------- [8:0 1:0 30 5] [0 0] 0 0
r 1.031827945 _5_ RTR  --- 5 ack 40 [13a 5 8 800] ------- [8:0 1:0 30 5] [0 0] 1 0
f 1.031827945 _5_ RTR  --- 5 ack 40 [13a 5 8 800] ------- [8:0 1:0 29 1] [0 0] 1 0
r 1.033772802 _1_ AGT  --- 5 ack 40 [13a 1 5 800] ------- [8:0 1:0 29 1] [0 0] 2 0
s 1.033772802 _1_ AGT  --- 6 tcp 41 [0 0 0 0] ------- [1:0 8:0 32 0] [1 0] 0 0
r 1.033772802 _1_ RTR  --- 6 tcp 41 [0 0 0 0] ------- [1:0 8:0 32 0] [1 0] 0 0
s 1.033772802 _1_ AGT  --- 7 tcp 41 [0 0 0 0] ------- [1:0 8:0 32 0] [2 0] 0 0
r 1.033772802 _1_ RTR  --- 7 tcp 41 [0 0 0 0] ------- [1:0 8:0 32 0] [2 0] 0 0
s 1.033772802 _1_ RTR  --- 6 tcp 41 [0 0 0 0] ------- [1:0 8:0 30 5] [1 0] 0 0
s 1.033772802 _1_ RTR  --- 7 tcp 41 [0 0 0 0] ------- [1:0 8:0 30 5] [2 0] 0 0
r 1.035605659 _5_ RTR  --- 6 tcp 41 [13a 5 1 800] ------- [1:0 8:0 30 5] [1 0] 1 0
f 1.035605659 _5_ RTR  --- 6 tcp 41 [13a 5 1 800] ------- [1:0 8:0 29 8] [1 0] 1 0
r 1.039400460 _8_ AGT  --- 6 tcp 41 [13a 8 5 800] ------- [1:0 8:0 29 8] [1 0] 2 0
s 1.039400460 _8_ AGT  --- 8 ack 40 [0 0 0 0] ------- [8:0 1:0 32 0] [1 0] 0 0
r 1.039400460 _8_ RTR  --- 8 ack 40 [0 0 0 0] ------- [8:0 1:0 32 0] [1 0] 0 0
s 1.039400460 _8_ RTR  --- 8 ack 40 [0 0 0 0] ------- [8:0 1:0 30 5] [1 0] 0 0
r 1.041394113 _5_ RTR  --- 7 tcp 41 [13a 5 1 800] ------- [1:0 8:0 30 5] [2 0] 1 0
f 1.041394113 _5_ RTR  --- 7 tcp 41 [13a 5 1 800] ------- [1:0 8:0 29 8] [2 0] 1 0
r 1.043312573 _0_ RTR  --- 0 AODV 44 [13a 0 5 800] ------- [9:255 0:255 29 0] [0x4 2 [9 4] 10.000000] (REPLY)
s 1.043312573 _0_ RTR  --- 0 tcp 40 [0 0 0 0] ------- [0:0 9:0 30 5] [0 0] 0 0
r 1.045179033 _5_ RTR  --- 0 tcp 40 [13a 5 0 800] ------- [0:0 9:0 30 5] [0 0] 1 0
f 1.045179033 _5_ RTR  --- 0 tcp 40 [13a 5 0 800] ------- [0:0 9:0 29 9] [0 0] 1 0
r 1.047074757 _5_ RTR  --- 8 ack 40 [13a 5 8 800] ------- [8:0 1:0 30 5] [1 0] 1 0
f 1.047074757 _5_ RTR  --- 8 ack 40 [13a 5 8 800] ------- [8:0 1:0 29 1] [1 0] 1 0
r 1.049128368 _8_ AGT  --- 7 tcp 41 [13a 8 5 800] ------- [1:0 8:0 29 8] [2 0] 2 0
s 1.049128368 _8_ AGT  --- 9 ack 40 [0 0 0 0] ------- [8:0 1:0 32 0] [2 0] 0 0
r 1.049128368 _8_ RTR  --- 9 ack 40 [0 0 0 0] ------- [8:0 1:0 32 0] [2 0] 0 0
s 1.049128368 _8_ RTR  --- 9 ack 40 [0 0 0 0] ------- [8:0 1:0 30 5] [2 0] 0 0
r 1.050993978 _5_ RTR  --- 9 ack 40 [13a 5 8 800] ------- [8:0 1:0 30 5] [2 0] 1 0
f 1.050993978 _5_ RTR  --- 9 ack 40 [13a 5 8 800] ------- [8:0 1:0 29 1] [2 0] 1 0
r 1.053098305 _9_ AGT  --- 0 tcp 40 [13a 9 5 800] ------- [0:0 9:0 29 9] [0 0] 2 0
s 1.053098305 _9_ AGT  --- 10 ack 40 [0 0 0 0] ------- [9:0 0:0 32 0] [0 0] 0 0
r 1.053098305 _9_ RTR  --- 10 ack 40 [0 0 0 0] ------- [9:0 0:0 32 0] [0 0] 0 0
s 1.053098305 _9_ RTR  --- 10 ack 40 [0 0 0 0] ------- [9:0 0:0 30 5] [0 0] 0 0
r 1.054942631 _5_ RTR  --- 10 ack 40 [13a 5 9 800] ------- [9:0 0:0 30 5] [0 0] 1 0
f 1.054942631 _5_ RTR  --- 10 ack 40 [13a 5 9 800] ------- [9:0 0:0 29 0] [0 0] 1 0
r 1.057247488 _1_ AGT  --- 8 ack 40 [13a 1 5 800] ------- [8:0 1:0 29 1] [1 0] 2 0
s 1.057247488 _1_ AGT  --- 11 tcp 41 [0 0 0 0] ------- [1:0 8:0 32 0] [3 0] 0 0
r 1.057247488 _1_ RTR  --- 11 tcp 41 [0 0 0 0] ------- [1:0 8:0 32 0] [3 0] 0 0
s 1.057247488 _1_ AGT  --- 12 tcp 41 [0 0 0 0] ------- [1:0 8:0 32 0] [4 0] 0 0
r 1.057247488 _1_ RTR  --- 12 tcp 41 [0 0 0 0] ------- [1:0 8:0 32 0] [4 0] 0 0
s 1.057247488 _1_ RTR  --- 11 tcp 41 [0 0 0 0] ------- [1:0 8:0 30 5] [3 0] 0 0
s 1.057247488 _1_ RTR  --- 12 tcp 41 [0 0 0 0] ------- [1:0 8:0 30 5] [4 0] 0 0
r 1.059200346 _5_ RTR  --- 11 tcp 41 [13a 5 1 800] ------- [1:0 8:0 30 5] [3 0] 1 0
f 1.059200346 _5_ RTR  --- 11 tcp 41 [13a 5 1 800] ------- [1:0 8:0 29 8] [3 0] 1 0
r 1.061073488 _5_ RTR  --- 12 tcp 41 [13a 5 1 800] ------- [1:0 8:0 30 5] [4 0] 1 0
f 1.061073488 _5_ RTR  --- 12 tcp 41 [13a 5 1 800] ------- [1:0 8:0 29 8] [4 0] 1 0
r 1.063058345 _1_ AGT  --- 9 ack 40 [13a 1 5 800] ------- [8:0 1:0 29 1] [2 0] 2 0
s 1.063058345 _1_ AGT  --- 13 tcp 41 [0 0 0 0] ------- [1:0 8:0 32 0] [5 0] 0 0
r 1.063058345 _1_ RTR  --- 13 tcp 41 [0 0 0 0] ------- [1:0 8:0 32 0] [5 0] 0 0
s 1.063058345 _1_ AGT  --- 14 tcp 41 [0 0 0 0] ------- [1:0 8:0 32 0] [6 0] 0 0
r 1.063058345 _1_ RTR  --- 14 tcp 41 [0 0 0 0] ------- [1:0 8:0 32 0] [6 0] 0 0
s 1.063058345 _1_ RTR  --- 13 tcp 41 [0 0 0 0] ------- [1:0 8:0 30 5] [5 0] 0 0
s 1.063058345 _1_ RTR  --- 14 tcp 41 [0 0 0 0] ------- [1:0 8:0 30 5] [6 0] 0 0
r 1.065005090 _0_ AGT  --- 10 ack 40 [13a 0 5 800] ------- [9:0 0:0 29 0] [0 0] 2 0
s 1.065005090 _0_ AGT  --- 15 tcp 41 [0 0 0 0] ------- [0:0 9:0 32 0] [1 0] 0 0
r 1.065005090 _0_ RTR  --- 15 tcp 41 [0 0 0 0] ------- [0:0 9:0 32 0] [1 0] 0 0
s 1.065005090 _0_ AGT  --- 16 tcp 41 [0 0 0 0] ------- [0:0 9:0 32 0] [2 0] 0 0
r 1.065005090 _0_ RTR  --- 16 tcp 41 [0 0 0 0] ------- [0:0 9:0 32 0] [2 0] 0 0
s 1.065005090 _0_ RTR  --- 15 tcp 41 [0 0 0 0] ------- [0:0 9:0 30 5] [1 0] 0 0
s 1.065005090 _0_ RTR  --- 16 tcp 41 [0 0 0 0] ------- [0:0 9:0 30 5] [2 0] 0 0
r 1.066939519 _8_ AGT  --- 11 tcp 41 [13a 8 5 800] ------- [1:0 8:0 29 8] [3 0] 2 0
s 1.066939519 _8_ AGT  --- 17 ack 40 [0 0 0 0] ------- [8:0 1:0 32 0] [3 0] 0 0
r 1.066939519 _8_ RTR  --- 17 ack 40 [0 0 0 0] ------- [8:0 1:0 32 0] [3 0] 0 0
s 1.066939519 _8_ RTR  --- 17 ack 40 [0 0 0 0] ------- [8:0 1:0 30 5] [3 0] 0 0
r 1.068845128 _5_ RTR  --- 17 ack 40 [13a 5 8 800] ------- [8:0 1:0 30 5] [3 0] 1 0
f 1.068845128 _5_ RTR  --- 17 ack 40 [13a 5 8 800] ------- [8:0 1:0 29 1] [3 0] 1 0
r 1.070818271 _5_ RTR  --- 13 tcp 41 [13a 5 1 800] ------- [1:0 8:0 30 5] [5 0] 1 0
f 1.070818271 _5_ RTR  --- 13 tcp 41 [13a 5 1 800] ------- [1:0 8:0 29 8] [5 0] 1 0
r 1.072711880 _8_ AGT  --- 12 tcp 41 [13a 8 5 800] ------- [1:0 8:0 29 8] [4 0] 2 0
s 1.072711880 _8_ AGT  --- 18 ack 40 [0 0 0 0] ------- [8:0 1:0 32 0] [4 0] 0 0
r 1.072711880 _8_ RTR  --- 18 ack 40 [0 0 0 0] ------- [8:0 1:0 32 0] [4 0] 0 0
s 1.072711880 _8_ RTR  --- 18 ack 40 [0 0 0 0] ------- [8:0 1:0 30 5] [4 0] 0 0
r 1.074557489 _5_ RTR  --- 18 ack 40 [13a 5 8 800] ------- [8:0 1:0 30 5] [4 0] 1 0
f 1.074557489 _5_ RTR  --- 18 ack 40 [13a 5 8 800] ------- [8:0 1:0 29 1] [4 0] 1 0
r 1.076410632 _5_ RTR  --- 14 tcp 41 [13a 5 1 800] ------- [1:0 8:0 30 5] [6 0] 1 0
f 1.076410632 _5_ RTR  --- 14 tcp 41 [13a 5 1 800] ------- [1:0 8:0 29 8] [6 0] 1 0
r 1.078315819 _5_ RTR  --- 15 tcp 41 [13a 5 0 800] ------- [0:0 9:0 30 5] [1 0] 1 0
f 1.078315819 _5_ RTR  --- 15 tcp 41 [13a 5 0 800] ------- [0:0 9:0 29 9] [1 0] 1 0
r 1.080211096 _5_ RTR  --- 16 tcp 41 [13a 5 0 800] ------- [0:0 9:0 30 5] [2 0] 1 0
f 1.080211096 _5_ RTR  --- 16 tcp 41 [13a 5 0 800] ------- [0:0 9:0 29 9] [2 0] 1 0
r 1.082235953 _1_ AGT  --- 17 ack 40 [13a 1 5 800] ------- [8:0 1:0 29 1] [3 0] 2 0
s 1.082235953 _1_ AGT  --- 19 tcp 41 [0 0 0 0] ------- [1:0 8:0 32 0] [7 0] 0 0
r 1.082235953 _1_ RTR  --- 19 tcp 41 [0 0 0 0] ------- [1:0 8:0 32 0] [7 0] 0 0
s 1.082235953 _1_ AGT  --- 20 tcp 41 [0 0 0 0] ------- [1:0 8:0 32 0] [8 0] 0 0
r 1.082235953 _1_ RTR  --- 20 tcp 41 [0 0 0 0] ------- [1:0 8:0 32 0] [8 0] 0 0
s 1.082235953 _1_ RTR  --- 19 tcp 41 [0 0 0 0] ------- [1:0 8:0 30 5] [7 0] 0 0
s 1.082235953 _1_ RTR  --- 20 tcp 41 [0 0 0 0] ------- [1:0 8:0 30 5] [8 0] 0 0
r 1.084188810 _5_ RTR  --- 19 tcp 41 [13a 5 1 800] ------- [1:0 8:0 30 5] [7 0] 1 0
f 1.084188810 _5_ RTR  --- 19 tcp 41 [13a 5 1 800] ------- [1:0 8:0 29 8] [7 0] 1 0
r 1.086461953 _5_ RTR  --- 20 tcp 41 [13a 5 1 800] ------- [1:0 8:0 30 5] [8 0] 1 0
f 1.086461953 _5_ RTR  --- 20 tcp 41 [13a 5 1 800] ------- [1:0 8:0 29 8] [8 0] 1 0
r 1.088355561 _8_ AGT  --- 13 tcp 41 [13a 8 5 800] ------- [1:0 8:0 29 8] [5 0] 2 0
s 1.088355561 _8_ AGT  --- 21 ack 40 [0 0 0 0] ------- [8:0 1:0 32 0] [5 0] 0 0
r 1.088355561 _8_ RTR  --- 21 ack 40 [0 0 0 0] ------- [8:0 1:0 32 0] [5 0] 0 0
s 1.088355561 _8_ RTR  --- 21 ack 40 [0 0 0 0] ------- [8:0 1:0 30 5] [5 0] 0 0
r 1.090481170 _5_ RTR  --- 21 ack 40 [13a 5 8 800] ------- [8:0 1:0 30 5] [5 0] 1 0
f 1.090481170 _5_ RTR  --- 21 ack 40 [13a 5 8 800] ------- [8:0 1:0 29 1] [5 0] 1 0
r 1.092326027 _1_ AGT  --- 18 ack 40 [13a 1 5 800] ------- [8:0 1:0 29 1] [4 0] 2 0
s 1.092326027 _1_ AGT  --- 22 tcp 41 [0 0 0 0] ------- [1:0 8:0 32 0] [9 0] 0 0
r 1.092326027 _1_ RTR  --- 22 tcp 41 [0 0 0 0] ------- [1:0 8:0 32 0] [9 0] 0 0
s 1.092326027 _1_ AGT  --- 23 tcp 41 [0 0 0 0] ------- [1:0 8:0 32 0] [10 0] 0 0
r 1.092326027 _1_ RTR  --- 23 tcp 41 [0 0 0 0] ------- [1:0 8:0 32 0] [10 0] 0 0
s 1.092326027 _1_ RTR  --- 22 tcp 41 [0 0 0 0] ------- [1:0 8:0 30 5] [9 0] 0 0
s 1.092326027 _1_ RTR  --- 23 tcp 41 [0 0 0 0] ------- [1:0 8:0 30 5] [10 0] 0 0
r 1.094378884 _5_ RTR  --- 22 tcp 41 [13a 5 1 800] ------- [1:0 8:0 30 5] [9 0] 1 0
f 1.094378884 _5_ RTR  --- 22 tcp 41 [13a 5 1 800] ------- [1:0 8:0 29 8] [9 0] 1 0
r 1.096252027 _5_ RTR  --- 23 tcp 41 [13a 5 1 800] ------- [1:0 8:0 30 5] [10 0] 1 0
f 1.096252027 _5_ RTR  --- 23 tcp 41 [13a 5 1 800] ------- [1:0 8:0 29 8] [10 0] 1 0
r 1.098185635 _8_ AGT  --- 14 tcp 41 [13a 8 5 800] ------- [1:0 8:0 29 8] [6 0] 2 0
s 1.098185635 _8_ AGT  --- 24 ack 40 [0 0 0 0] ------- [8:0 1:0 32 0] [6 0] 0 0
r 1.098185635 _8_ RTR  --- 24 ack 40 [0 0 0 0] ------- [8:0 1:0 32 0] [6 0] 0 0
s 1.098185635 _8_ RTR  --- 24 ack 40 [0 0 0 0] ------- [8:0 1:0 30 5] [6 0] 0 0
r 1.100198497 _9_ AGT  --- 15 tcp 41 [13a 9 5 800] ------- [0:0 9:0 29 9] [1 0] 2 0
s 1.100198497 _9_ AGT  --- 25 ack 40 [0 0 0 0] ------- [9:0 0:0 32 0] [1 0] 0 0
r 1.100198497 _9_ RTR  --- 25 ack 40 [0 0 0 0] ------- [9:0 0:0 32 0] [1 0] 0 0
s 1.100198497 _9_ RTR  --- 25 ack 40 [0 0 0 0] ------- [9:0 0:0 30 5] [1 0] 0 0
r 1.102064733 _5_ RTR  --- 24 ack 40 [13a 5 8 800] ------- [8:0 1:0 30 5] [6 0] 1 0
f 1.102064733 _5_ RTR  --- 24 ack 40 [13a 5 8 800] ------- [8:0 1:0 29 1] [6 0] 1 0
r 1.104009168 _5_ RTR  --- 25 ack 40 [13a 5 9 800] ------- [9:0 0:0 30 5] [1 0] 1 0
f 1.104009168 _5_ RTR  --- 25 ack 40 [13a 5 9 800] ------- [9:0 0:0 29 0] [1 0] 1 0
r 1.106121494 _9_ AGT  --- 16 tcp 41 [13a 9 5 800] ------- [0:0 9:0 29 9] [2 0] 2 0
s 1.106121494 _9_ AGT  --- 26 ack 40 [0 0 0 0] ------- [9:0 0:0 32 0] [2 0] 0 0
r 1.106121494 _9_ RTR  --- 26 ack 40 [0 0 0 0] ------- [9:0 0:0 32 0] [2 0] 0 0
s 1.106121494 _9_ RTR  --- 26 ack 40 [0 0 0 0] ------- [9:0 0:0 30 5] [2 0] 0 0
r 1.108105819 _5_ RTR  --- 26 ack 40 [13a 5 9 800] ------- [9:0 0:0 30 5] [2 0] 1 0
f 1.108105819 _5_ RTR  --- 26 ack 40 [13a 5 9 800] ------- [9:0 0:0 29 0] [2 0] 1 0
r 1.110019427 _8_ AGT  --- 19 tcp 41 [13a 8 5 800] ------- [1:0 8:0 29 8] [7 0] 2 0
s 1.110019427 _8_ AGT  --- 27 ack 40 [0 0 0 0] ------- [8:0 1:0 32 0] [7 0] 0 0
r 1.110019427 _8_ RTR  --- 27 ack 40 [0 0 0 0] ------- [8:0 1:0 32 0] [7 0] 0 0
s 1.110019427 _8_ RTR  --- 27 ack 40 [0 0 0 0] ------- [8:0 1:0 30 5] [7 0] 0 0
r 1.111985035 _5_ RTR  --- 27 ack 40 [13a 5 8 800] ------- [8:0 1:0 30 5] [7 0] 1 0
f 1.111985035 _5_ RTR  --- 27 ack 40 [13a 5 8 800] ------- [8:0 1:0 29 1] [7 0] 1 0
r 1.114058642 _8_ AGT  --- 20 tcp 41 [13a 8 5 800] ------- [1:0 8:0 29 8] [8 0] 2 0
s 1.114058642 _8_ AGT  --- 28 ack 40 [0 0 0 0] ------- [8:0 1:0 32 0] [8 0] 0 0
r 1.114058642 _8_ RTR  --- 28 ack 40 [0 0 0 0] ------- [8:0 1:0 32 0] [8 0] 0 0
s 1.114058642 _8_ RTR  --- 28 ack 40 [0 0 0 0] ------- [8:0 1:0 30 5] [8 0] 0 0
r 1.115984250 _5_ RTR  --- 28 ack 40 [13a 5 8 800] ------- [8:0 1:0 30 5] [8 0] 1 0
f 1.115984250 _5_ RTR  --- 28 ack 40 [13a 5 8 800] ------- [8:0 1:0 29 1] [8 0] 1 0
r 1.118149107 _1_ AGT  --- 21 ack 40 [13a 1 5 800] ------- [8:0 1:0 29 1] [5 0] 2 0
s 1.118149107 _1_ AGT  --- 29 tcp 41 [0 0 0 0] ------- [1:0 8:0 32 0] [11 0] 0 0
r 1.118149107 _1_ RTR  --- 29 tcp 41 [0 0 0 0] ------- [1:0 8:0 32 0] [11 0] 0 0
s 1.118149107 _1_ AGT  --- 30 tcp 41 [0 0 0 0] ------- [1:0 8:0 32 0] [12 0] 0 0
r 1.118149107 _1_ RTR  --- 30 tcp 41 [0 0 0 0] ------- [1:0 8:0 32 0] [12 0] 0 0
s 1.118149107 _1_ RTR  --- 29 tcp 41 [0 0 0 0] ------- [1:0 8:0 30 5] [11 0] 0 0
s 1.118149107 _1_ RTR  --- 30 tcp 41 [0 0 0 0] ------- [1:0 8:0 30 5] [12 0] 0 0
r 1.120143000 _8_ AGT  --- 22 tcp 41 [13a 8 5 800] ------- [1:0 8:0 29 8] [9 0] 2 0
s 1.120143000 _8_ AGT  --- 31 ack 40 [0 0 0 0] ------- [8:0 1:0 32 0] [9 0] 0 0
r 1.120143000 _8_ RTR  --- 31 ack 40 [0 0 0 0] ------- [8:0 1:0 32 0] [9 0] 0 0
s 1.120143000 _8_ RTR  --- 31 ack 40 [0 0 0 0] ------- [8:0 1:0 30 5] [9 0] 0 0
r 1.121988607 _5_ RTR  --- 31 ack 40 [13a 5 8 800] ------- [8:0 1:0 30 5] [9 0] 1 0
f 1.121988607 _5_ RTR  --- 31 ack 40 [13a 5 8 800] ------- [8:0 1:0 29 1] [9 0] 1 0
r 1.123842214 _8_ AGT  --- 23 tcp 41 [13a 8 5 800] ------- [1:0 8:0 29 8] [10 0] 2 0
s 1.123842214 _8_ AGT  --- 32 ack 40 [0 0 0 0] ------- [8:0 1:0 32 0] [10 0] 0 0
r 1.123842214 _8_ RTR  --- 32 ack 40 [0 0 0 0] ------- [8:0 1:0 32 0] [10 0] 0 0
s 1.123842214 _8_ RTR  --- 32 ack 40 [0 0 0 0] ------- [8:0 1:0 30 5] [10 0] 0 0
r 1.125767607 _1_ AGT  --- 24 ack 40 [13a 1 5 800] ------- [8:0 1:0 29 1] [6 0] 2 0
s 1.125767607 _1_ AGT  --- 33 tcp 41 [0 0 0 0] ------- [1:0 8:0 32 0] [13 0] 0 0
r 1.125767607 _1_ RTR  --- 33 tcp 41 [0 0 0 0] ------- [1:0 8:0 32 0] [13 0] 0 0
s 1.125767607 _1_ AGT  --- 34 tcp 41 [0 0 0 0] ------- [1:0 8:0 32 0] [14 0] 0 0
r 1.125767607 _1_ RTR  --- 34 tcp 41 [0 0 0 0] ------- [1:0 8:0 32 0] [14 0] 0 0
s 1.125767607 _1_ RTR  --- 33 tcp 41 [0 0 0 0] ------- [1:0 8:0 30 5] [13 0] 0 0
s 1.125767607 _1_ RTR  --- 34 tcp 41 [0 0 0 0] ------- [1:0 8:0 30 5] [14 0] 0 0
r 1.127594347 _0_ AGT  --- 25 ack 40 [13a 0 5 800] ------- [9:0 0:0 29 0] [1 0] 2 0
s 1.127594347 _0_ AGT  --- 35 tcp 41 [0 0 0 0] ------- [0:0 9:0 32 0] [3 0] 0 0
r 1.127594347 _0_ RTR  --- 35 tcp 41 [0 0 0 0] ------- [0:0 9:0 32 0] [3 0] 0 0
s 1.127594347 _0_ AGT  --- 36 tcp 41 [0 0 0 0] ------- [0:0 9:0 32 0] [4 0] 0 0
r 1.127594347 _0_ RTR  --- 36 tcp 41 [0 0 0 0] ------- [0:0 9:0 32 0] [4 0] 0 0
s 1.127594347 _0_ RTR  --- 35 tcp 41 [0 0 0 0] ------- [0:0 9:0 30 5] [3 0] 0 0
s 1.127594347 _0_ RTR  --- 36 tcp 41 [0 0 0 0] ------- [0:0 9:0 30 5] [4 0] 0 0
r 1.129488802 _5_ RTR  --- 35 tcp 41 [13a 5 0 800] ------- [0:0 9:0 30 5] [3 0] 1 0
f 1.129488802 _5_ RTR  --- 35 tcp 41 [13a 5 0 800] ------- [0:0 9:0 29 9] [3 0] 1 0
r 1.131431854 _5_ RTR  --- 29 tcp 41 [13a 5 1 800] ------- [1:0 8:0 30 5] [11 0] 1 0
f 1.131431854 _5_ RTR  --- 29 tcp 41 [13a 5 1 800] ------- [1:0 8:0 29 8] [11 0] 1 0
r 1.133357996 _5_ RTR  --- 32 ack 40 [13a 5 8 800] ------- [8:0 1:0 30 5] [10 0] 1 0
f 1.133357996 _5_ RTR  --- 32 ack 40 [13a 5 8 800] ------- [8:0 1:0 29 1] [10 0] 1 0
r 1.135464450 _0_ AGT  --- 26 ack 40 [13a 0 5 800] ------- [9:0 0:0 29 0] [2 0] 2 0
s 1.135464450 _0_ AGT  --- 37 tcp 41 [0 0 0 0] ------- [0:0 9:0 32 0] [5 0] 0 0
r 1.135464450 _0_ RTR  --- 37 tcp 41 [0 0 0 0] ------- [0:0 9:0 32 0] [5 0] 0 0
s 1.135464450 _0_ AGT  --- 38 tcp 41 [0 0 0 0] ------- [0:0 9:0 32 0] [6 0] 0 0
r 1.135464450 _0_ RTR  --- 38 tcp 41 [0 0 0 0] ------- [0:0 9:0 32 0] [6 0] 0 0
s 1.135464450 _0_ RTR  --- 37 tcp 41 [0 0 0 0] ------- [0:0 9:0 30 5] [5 0] 0 0
s 1.135464450 _0_ RTR  --- 38 tcp 41 [0 0 0 0] ------- [0:0 9:0 30 5] [6 0] 0 0
r 1.137310126 _1_ AGT  --- 27 ack 40 [13a 1 5 800] ------- [8:0 1:0 29 1] [7 0] 2 0
s 1.137310126 _1_ AGT  --- 39 tcp 41 [0 0 0 0] ------- [1:0 8:0 32 0] [15 0] 0 0
r 1.137310126 _1_ RTR  --- 39 tcp 41 [0 0 0 0] ------- [1:0 8:0 32 0] [15 0] 0 0
s 1.137310126 _1_ AGT  --- 40 tcp 41 [0 0 0 0] ------- [1:0 8:0 32 0] [16 0] 0 0
r 1.137310126 _1_ RTR  --- 40 tcp 41 [0 0 0 0] ------- [1:0 8:0 32 0] [16 0] 0 0
s 1.137310126 _1_ RTR  --- 39 tcp 41 [0 0 0 0] ------- [1:0 8:0 30 5] [15 0] 0 0
s 1.137310126 _1_ RTR  --- 40 tcp 41 [0 0 0 0] ------- [1:0 8:0 30 5] [16 0] 0 0
r 1.139202983 _5_ RTR  --- 30 tcp 41 [13a 5 1 800] ------- [1:0 8:0 30 5] [12 0] 1 0
f 1.139202983 _5_ RTR  --- 30 tcp 41 [13a 5 1 800] ------- [1:0 8:0 29 8] [12 0] 1 0
r 1.141047840 _1_ AGT  --- 28 ack 40 [13a 1 5 800] ------- [8:0 1:0 29 1] [8 0] 2 0
s 1.141047840 _1_ AGT  --- 41 tcp 41 [0 0 0 0] ------- [1:0 8:0 32 0] [17 0] 0 0
r 1.141047840 _1_ RTR  --- 41 tcp 41 [0 0 0 0] ------- [1:0 8:0 32 0] [17 0] 0 0
s 1.141047840 _1_ AGT  --- 42 tcp 41 [0 0 0 0] ------- [1:0 8:0 32 0] [18 0] 0 0
r 1.141047840 _1_ RTR  --- 42 tcp 41 [0 0 0 0] ------- [1:0 8:0 32 0] [18 0] 0 0
s 1.141047840 _1_ RTR  --- 41 tcp 41 [0 0 0 0] ------- [1:0 8:0 30 5] [17 0] 0 0
s 1.141047840 _1_ RTR  --- 42 tcp 41 [0 0 0 0] ------- [1:0 8:0 30 5] [18 0] 0 0
r 1.142892982 _1_ AGT  --- 31 ack 40 [13a 1 5 800] ------- [8:0 1:0 29 1] [9 0] 2 0
s 1.142892982 _1_ AGT  --- 43 tcp 41 [0 0 0 0] ------- [1:0 8:0 32 0] [19 0] 0 0
r 1.142892982 _1_ RTR  --- 43 tcp 41 [0 0 0 0] ------- [1:0 8:0 32 0] [19 0] 0 0
s 1.142892982 _1_ AGT  --- 44 tcp 41 [0 0 0 0] ------- [1:0 8:0 32 0] [20 0] 0 0
r 1.142892982 _1_ RTR  --- 44 tcp 41 [0 0 0 0] ------- [1:0 8:0 32 0] [20 0] 0 0
s 1.142892982 _1_ RTR  --- 43 tcp 41 [0 0 0 0] ------- [1:0 8:0 30 5] [19 0] 0 0
s 1.142892982 _1_ RTR  --- 44 tcp 41 [0 0 0 0] ------- [1:0 8:0 30 5] [20 0] 0 0
r 1.144745593 _9_ AGT  --- 35 tcp 41 [13a 9 5 800] ------- [0:0 9:0 29 9] [3 0] 2 0
s 1.144745593 _9_ AGT  --- 45 ack 40 [0 0 0 0] ------- [9:0 0:0 32 0] [3 0] 0 0
r 1.144745593 _9_ RTR  --- 45 ack 40 [0 0 0 0] ------- [9:0 0:0 32 0] [3 0] 0 0
s 1.144745593 _9_ RTR  --- 45 ack 40 [0 0 0 0] ------- [9:0 0:0 30 5] [3 0] 0 0
r 1.146798628 _5_ RTR  --- 33 tcp 41 [13a 5 1 800] ------- [1:0 8:0 30 5] [13 0] 1 0
f 1.146798628 _5_ RTR  --- 33 tcp 41 [13a 5 1 800] ------- [1:0 8:0 29 8] [13 0] 1 0
r 1.148783062 _5_ RTR  --- 45 ack 40 [13a 5 9 800] ------- [9:0 0:0 30 5] [3 0] 1 0
f 1.148783062 _5_ RTR  --- 45 ack 40 [13a 5 9 800] ------- [9:0 0:0 29 0] [3 0] 1 0
r 1.150676668 _8_ AGT  --- 29 tcp 41 [13a 8 5 800] ------- [1:0 8:0 29 8] [11 0] 2 0
s 1.150676668 _8_ AGT  --- 46 ack 40 [0 0 0 0] ------- [8:0 1:0 32 0] [11 0] 0 0
r 1.150676668 _8_ RTR  --- 46 ack 40 [0 0 0 0] ------- [8:0 1:0 32 0] [11 0] 0 0
s 1.150676668 _8_ RTR  --- 46 ack 40 [0 0 0 0] ------- [8:0 1:0 30 5] [11 0] 0 0
r 1.153578928 _5_ RTR  --- 36 tcp 41 [13a 5 0 800] ------- [0:0 9:0 30 5] [4 0] 1 0
f 1.153578928 _5_ RTR  --- 36 tcp 41 [13a 5 0 800] ------- [0:0 9:0 29 9] [4 0] 1 0
r 1.155474649 _5_ RTR  --- 46 ack 40 [13a 5 8 800] ------- [8:0 1:0 30 5] [11 0] 1 0
f 1.155474649 _5_ RTR  --- 46 ack 40 [13a 5 8 800] ------- [8:0 1:0 29 1] [11 0] 1 0
r 1.157367792 _5_ RTR  --- 34 tcp 41 [13a 5 1 800] ------- [1:0 8:0 30 5] [14 0] 1 0
f 1.157367792 _5_ RTR  --- 34 tcp 41 [13a 5 1 800] ------- [1:0 8:0 29 8] [14 0] 1 0
r 1.159200934 _5_ RTR  --- 39 tcp 41 [13a 5 1 800] ------- [1:0 8:0 30 5] [15 0] 1 0
f 1.159200934 _5_ RTR  --- 39 tcp 41 [13a 5 1 800] ------- [1:0 8:0 29 8] [15 0] 1 0
r 1.161134077 _5_ RTR  --- 40 tcp 41 [13a 5 1 800] ------- [1:0 8:0 30 5] [16 0] 1 0
f 1.161134077 _5_ RTR  --- 40 tcp 41 [13a 5 1 800] ------- [1:0 8:0 29 8] [16 0] 1 0
r 1.162967220 _5_ RTR  --- 41 tcp 41 [13a 5 1 800] ------- [1:0 8:0 30 5] [17 0] 1 0
f 1.162967220 _5_ RTR  --- 41 tcp 41 [13a 5 1 800] ------- [1:0 8:0 29 8] [17 0] 1 0
r 1.164892399 _5_ RTR  --- 37 tcp 41 [13a 5 0 800] ------- [0:0 9:0 30 5] [5 0] 1 0
f 1.164892399 _5_ RTR  --- 37 tcp 41 [13a 5 0 800] ------- [0:0 9:0 29 9] [5 0] 1 0
r 1.167235450 _5_ RTR  --- 42 tcp 41 [13a 5 1 800] ------- [1:0 8:0 30 5] [18 0] 1 0
f 1.167235450 _5_ RTR  --- 42 tcp 41 [13a 5 1 800] ------- [1:0 8:0 29 8] [18 0] 1 0
r 1.169140307 _1_ AGT  --- 32 ack 40 [13a 1 5 800] ------- [8:0 1:0 29 1] [10 0] 2 0
s 1.169140307 _1_ AGT  --- 47 tcp 41 [0 0 0 0] ------- [1:0 8:0 32 0] [21 0] 0 0
r 1.169140307 _1_ RTR  --- 47 tcp 41 [0 0 0 0] ------- [1:0 8:0 32 0] [21 0] 0 0
s 1.169140307 _1_ AGT  --- 48 tcp 41 [0 0 0 0] ------- [1:0 8:0 32 0] [22 0] 0 0
r 1.169140307 _1_ RTR  --- 48 tcp 41 [0 0 0 0] ------- [1:0 8:0 32 0] [22 0] 0 0
s 1.169140307 _1_ RTR  --- 47 tcp 41 [0 0 0 0] ------- [1:0 8:0 30 5] [21 0] 0 0
s 1.169140307 _1_ RTR  --- 48 tcp 41 [0 0 0 0] ------- [1:0 8:0 30 5] [22 0] 0 0
r 1.171379771 _5_ RTR  --- 38 tcp 41 [13a 5 0 800] ------- [0:0 9:0 30 5] [6 0] 1 0
f 1.171379771 _5_ RTR  --- 38 tcp 41 [13a 5 0 800] ------- [0:0 9:0 29 9] [6 0] 1 0
r 1.173382822 _5_ RTR  --- 43 tcp 41 [13a 5 1 800] ------- [1:0 8:0 30 5] [19 0] 1 0
f 1.173382822 _5_ RTR  --- 43 tcp 41 [13a 5 1 800] ------- [1:0 8:0 29 8] [19 0] 1 0
r 1.175236427 _8_ AGT  --- 30 tcp 41 [13a 8 5 800] ------- [1:0 8:0 29 8] [12 0] 2 0
s 1.175236427 _8_ AGT  --- 49 ack 40 [0 0 0 0] ------- [8:0 1:0 32 0] [12 0] 0 0
r 1.175236427 _8_ RTR  --- 49 ack 40 [0 0 0 0] ------- [8:0 1:0 32 0] [12 0] 0 0
s 1.175236427 _8_ RTR  --- 49 ack 40 [0 0 0 0] ------- [8:0 1:0 30 5] [12 0] 0 0
r 1.177202032 _5_ RTR  --- 49 ack 40 [13a 5 8 800] ------- [8:0 1:0 30 5] [12 0] 1 0
f 1.177202032 _5_ RTR  --- 49 ack 40 [13a 5 8 800] ------- [8:0 1:0 29 1] [12 0] 1 0
r 1.179155637 _8_ AGT  --- 33 tcp 41 [13a 8 5 800] ------- [1:0 8:0 29 8] [13 0] 2 0
s 1.179155637 _8_ AGT  --- 50 ack 40 [0 0 0 0] ------- [8:0 1:0 32 0] [13 0] 0 0
r 1.179155637 _8_ RTR  --- 50 ack 40 [0 0 0 0] ------- [8:0 1:0 32 0] [13 0] 0 0
s 1.179155637 _8_ RTR  --- 50 ack 40 [0 0 0 0] ------- [8:0 1:0 30 5] [13 0] 0 0
r 1.181082623 _0_ AGT  --- 45 ack 40 [13a 0 5 800] ------- [9:0 0:0 29 0] [3 0] 2 0
s 1.181082623 _0_ AGT  --- 51 tcp 41 [0 0 0 0] ------- [0:0 9:0 32 0] [7 0] 0 0
r 1.181082623 _0_ RTR  --- 51 tcp 41 [0 0 0 0] ------- [0:0 9:0 32 0] [7 0] 0 0
s 1.181082623 _0_ AGT  --- 52 tcp 41 [0 0 0 0] ------- [0:0 9:0 32 0] [8 0] 0 0
r 1.181082623 _0_ RTR  --- 52 tcp 41 [0 0 0 0] ------- [0:0 9:0 32 0] [8 0] 0 0
s 1.181082623 _0_ RTR  --- 51 tcp 41 [0 0 0 0] ------- [0:0 9:0 30 5] [7 0] 0 0
s 1.181082623 _0_ RTR  --- 52 tcp 41 [0 0 0 0] ------- [0:0 9:0 30 5] [8 0] 0 0
r 1.182915765 _9_ AGT  --- 36 tcp 41 [13a 9 5 800] ------- [0:0 9:0 29 9] [4 0] 2 0
s 1.182915765 _9_ AGT  --- 53 ack 40 [0 0 0 0] ------- [9:0 0:0 32 0] [4 0] 0 0
r 1.182915765 _9_ RTR  --- 53 ack 40 [0 0 0 0] ------- [9:0 0:0 32 0] [4 0] 0 0
s 1.182915765 _9_ RTR  --- 53 ack 40 [0 0 0 0] ------- [9:0 0:0 30 5] [4 0] 0 0
r 1.184948800 _5_ RTR  --- 44 tcp 41 [13a 5 1 800] ------- [1:0 8:0 30 5] [20 0] 1 0
f 1.184948800 _5_ RTR  --- 44 tcp 41 [13a 5 1 800] ------- [1:0 8:0 29 8] [20 0] 1 0
r 1.186894939 _5_ RTR  --- 50 ack 40 [13a 5 8 800] ------- [8:0 1:0 30 5] [13 0] 1 0
f 1.186894939 _5_ RTR  --- 50 ack 40 [13a 5 8 800] ------- [8:0 1:0 29 1] [13 0] 1 0
r 1.188779372 _5_ RTR  --- 53 ack 40 [13a 5 9 800] ------- [9:0 0:0 30 5] [4 0] 1 0
f 1.188779372 _5_ RTR  --- 53 ack 40 [13a 5 9 800] ------- [9:0 0:0 29 0] [4 0] 1 0
r 1.190672515 _5_ RTR  --- 47 tcp 41 [13a 5 1 800] ------- [1:0 8:0 30 5] [21 0] 1 0
f 1.190672515 _5_ RTR  --- 47 tcp 41 [13a 5 1 800] ------- [1:0 8:0 29 8] [21 0] 1 0
r 1.192557372 _1_ AGT  --- 46 ack 40 [13a 1 5 800] ------- [8:0 1:0 29 1] [11 0] 2 0
s 1.192557372 _1_ AGT  --- 54 tcp 41 [0 0 0 0] ------- [1:0 8:0 32 0] [23 0] 0 0
r 1.192557372 _1_ RTR  --- 54 tcp 41 [0 0 0 0] ------- [1:0 8:0 32 0] [23 0] 0 0
s 1.192557372 _1_ AGT  --- 55 tcp 41 [0 0 0 0] ------- [1:0 8:0 32 0] [24 0] 0 0
r 1.192557372 _1_ RTR  --- 55 tcp 41 [0 0 0 0] ------- [1:0 8:0 32 0] [24 0] 0 0
s 1.192557372 _1_ RTR  --- 54 tcp 41 [0 0 0 0] ------- [1:0 8:0 30 5] [23 0] 0 0
s 1.192557372 _1_ RTR  --- 55 tcp 41 [0 0 0 0] ------- [1:0 8:0 30 5] [24 0] 0 0
r 1.194551262 _8_ AGT  --- 34 tcp 41 [13a 8 5 800] ------- [1:0 8:0 29 8] [14 0] 2 0
s 1.194551262 _8_ AGT  --- 56 ack 40 [0 0 0 0] ------- [8:0 1:0 32 0] [14 0] 0 0
r 1.194551262 _8_ RTR  --- 56 ack 40 [0 0 0 0] ------- [8:0 1:0 32 0] [14 0] 0 0
s 1.194551262 _8_ RTR  --- 56 ack 40 [0 0 0 0] ------- [8:0 1:0 30 5] [14 0] 0 0
r 1.196544913 _5_ RTR  --- 48 tcp 41 [13a 5 1 800] ------- [1:0 8:0 30 5] [22 0] 1 0
f 1.196544913 _5_ RTR  --- 48 tcp 41 [13a 5 1 800] ------- [1:0 8:0 29 8] [22 0] 1 0
r 1.198518056 _5_ RTR  --- 54 tcp 41 [13a 5 1 800] ------- [1:0 8:0 30 5] [23 0] 1 0
f 1.198518056 _5_ RTR  --- 54 tcp 41 [13a 5 1 800] ------- [1:0 8:0 29 8] [23 0] 1 0