s 1.421849797 _4_ AGT  --- 200 tcp 41 [0 0 0 0] ------- [4:0 5:0 32 0] [102 0] 0 0
r 1.421849797 _4_ RTR  --- 200 tcp 41 [0 0 0 0] ------- [4:0 5:0 32 0] [102 0] 0 0
s 1.421849797 _4_ RTR  --- 200 tcp 41 [0 0 0 0] ------- [4:0 5:0 30 5] [102 0] 0 0
r 1.423744106 _5_ AGT  --- 180 tcp 41 [13a 5 4 800] ------- [4:0 5:0 30 5] [93 0] 1 0
s 1.423744106 _5_ AGT  --- 201 ack 40 [0 0 0 0] ------- [5:0 4:0 32 0] [93 0] 0 0
r 1.423744106 _5_ RTR  --- 201 ack 40 [0 0 0 0] ------- [5:0 4:0 32 0] [93 0] 0 0
s 1.423744106 _5_ RTR  --- 201 ack 40 [0 0 0 0] ------- [5:0 4:0 30 4] [93 0] 0 0
r 1.425974894 _0_ AGT  --- 143 ack 40 [13a 0 3 800] ------- [9:0 0:0 29 0] [0 0] 2 0
s 1.425974894 _0_ AGT  --- 202 tcp 41 [0 0 0 0] ------- [0:0 9:0 32 0] [1 0] 0 0
r 1.425974894 _0_ RTR  --- 202 tcp 41 [0 0 0 0] ------- [0:0 9:0 32 0] [1 0] 0 0
s 1.425974894 _0_ AGT  --- 203 tcp 41 [0 0 0 0] ------- [0:0 9:0 32 0] [2 0] 0 0
r 1.425974894 _0_ RTR  --- 203 tcp 41 [0 0 0 0] ------- [0:0 9:0 32 0] [2 0] 0 0
s 1.425974894 _0_ RTR  --- 202 tcp 41 [0 0 0 0] ------- [0:0 9:0 30 3] [1 0] 0 0
s 1.425974894 _0_ RTR  --- 203 tcp 41 [0 0 0 0] ------- [0:0 9:0 30 3] [2 0] 0 0
r 1.427911553 _4_ AGT  --- 182 ack 40 [13a 4 5 800] ------- [5:0 4:0 30 4] [83 0] 1 0
s 1.427911553 _4_ AGT  --- 204 tcp 41 [0 0 0 0] ------- [4:0 5:0 32 0] [103 0] 0 0
r 1.427911553 _4_ RTR  --- 204 tcp 41 [0 0 0 0] ------- [4:0 5:0 32 0] [103 0] 0 0
s 1.427911553 _4_ RTR  --- 204 tcp 41 [0 0 0 0] ------- [4:0 5:0 30 5] [103 0] 0 0
r 1.429778632 _4_ AGT  --- 183 ack 40 [13a 4 5 800] ------- [5:0 4:0 30 4] [84 0] 1 0
s 1.429778632 _4_ AGT  --- 205 tcp 41 [0 0 0 0] ------- [4:0 5:0 32 0] [104 0] 0 0
r 1.429778632 _4_ RTR  --- 205 tcp 41 [0 0 0 0] ------- [4:0 5:0 32 0] [104 0] 0 0
s 1.429778632 _4_ RTR  --- 205 tcp 41 [0 0 0 0] ------- [4:0 5:0 30 5] [104 0] 0 0
r 1.431692940 _5_ AGT  --- 185 tcp 41 [13a 5 4 800] ------- [4:0 5:0 30 5] [94 0] 1 0
s 1.431692940 _5_ AGT  --- 206 ack 40 [0 0 0 0] ------- [5:0 4:0 32 0] [94 0] 0 0
r 1.431692940 _5_ RTR  --- 206 ack 40 [0 0 0 0] ------- [5:0 4:0 32 0] [94 0] 0 0
s 1.431692940 _5_ RTR  --- 206 ack 40 [0 0 0 0] ------- [5:0 4:0 30 4] [94 0] 0 0
r 1.434666788 _4_ AGT  --- 184 ack 40 [13a 4 5 800] ------- [5:0 4:0 30 4] [85 0] 1 0
s 1.434666788 _4_ AGT  --- 207 tcp 41 [0 0 0 0] ------- [4:0 5:0 32 0] [105 0] 0 0
r 1.434666788 _4_ RTR  --- 207 tcp 41 [0 0 0 0] ------- [4:0 5:0 32 0] [105 0] 0 0
s 1.434666788 _4_ RTR  --- 207 tcp 41 [0 0 0 0] ------- [4:0 5:0 30 5] [105 0] 0 0
r 1.436621038 _3_ RTR  --- 202 tcp 41 [13a 3 0 800] ------- [0:0 9:0 30 3] [1 0] 1 0
f 1.436621038 _3_ RTR  --- 202 tcp 41 [13a 3 0 800] ------- [0:0 9:0 29 9] [1 0] 1 0
r 1.438495473 _3_ RTR  --- 203 tcp 41 [13a 3 0 800] ------- [0:0 9:0 30 3] [2 0] 1 0
f 1.438495473 _3_ RTR  --- 203 tcp 41 [13a 3 0 800] ------- [0:0 9:0 29 9] [2 0] 1 0
r 1.440706742 _4_ AGT  --- 187 ack 40 [13a 4 5 800] ------- [5:0 4:0 30 4] [86 0] 1 0
s 1.440706742 _4_ AGT  --- 208 tcp 41 [0 0 0 0] ------- [4:0 5:0 32 0] [106 0] 0 0
r 1.440706742 _4_ RTR  --- 208 tcp 41 [0 0 0 0] ------- [4:0 5:0 32 0] [106 0] 0 0
s 1.440706742 _4_ RTR  --- 208 tcp 41 [0 0 0 0] ------- [4:0 5:0 30 5] [106 0] 0 0
r 1.442973820 _4_ AGT  --- 189 ack 40 [13a 4 5 800] ------- [5:0 4:0 30 4] [87 0] 1 0
s 1.442973820 _4_ AGT  --- 209 tcp 41 [0 0 0 0] ------- [4:0 5:0 32 0] [107 0] 0 0
r 1.442973820 _4_ RTR  --- 209 tcp 41 [0 0 0 0] ------- [4:0 5:0 32 0] [107 0] 0 0
s 1.442973820 _4_ RTR  --- 209 tcp 41 [0 0 0 0] ------- [4:0 5:0 30 5] [107 0] 0 0
r 1.444928128 _5_ AGT  --- 186 tcp 41 [13a 5 4 800] ------- [4:0 5:0 30 5] [95 0] 1 0
s 1.444928128 _5_ AGT  --- 210 ack 40 [0 0 0 0] ------- [5:0 4:0 32 0] [95 0] 0 0
r 1.444928128 _5_ RTR  --- 210 ack 40 [0 0 0 0] ------- [5:0 4:0 32 0] [95 0] 0 0
s 1.444928128 _5_ RTR  --- 210 ack 40 [0 0 0 0] ------- [5:0 4:0 30 4] [95 0] 0 0
r 1.446903206 _5_ AGT  --- 188 tcp 41 [13a 5 4 800] ------- [4:0 5:0 30 5] [96 0] 1 0
s 1.446903206 _5_ AGT  --- 211 ack 40 [0 0 0 0] ------- [5:0 4:0 32 0] [96 0] 0 0
r 1.446903206 _5_ RTR  --- 211 ack 40 [0 0 0 0] ------- [5:0 4:0 32 0] [96 0] 0 0
s 1.446903206 _5_ RTR  --- 211 ack 40 [0 0 0 0] ------- [5:0 4:0 30 4] [96 0] 0 0
r 1.449089515 _4_ AGT  --- 191 ack 40 [13a 4 5 800] ------- [5:0 4:0 30 4] [88 0] 1 0
s 1.449089515 _4_ AGT  --- 212 tcp 41 [0 0 0 0] ------- [4:0 5:0 32 0] [108 0] 0 0
r 1.449089515 _4_ RTR  --- 212 tcp 41 [0 0 0 0] ------- [4:0 5:0 32 0] [108 0] 0 0
s 1.449089515 _4_ RTR  --- 212 tcp 41 [0 0 0 0] ------- [4:0 5:0 30 5] [108 0] 0 0
r 1.451123824 _5_ AGT  --- 190 tcp 41 [13a 5 4 800] ------- [4:0 5:0 30 5] [97 0] 1 0
s 1.451123824 _5_ AGT  --- 213 ack 40 [0 0 0 0] ------- [5:0 4:0 32 0] [97 0] 0 0
r 1.451123824 _5_ RTR  --- 213 ack 40 [0 0 0 0] ------- [5:0 4:0 32 0] [97 0] 0 0
s 1.451123824 _5_ RTR  --- 213 ack 40 [0 0 0 0] ------- [5:0 4:0 30 4] [97 0] 0 0
r 1.453150132 _4_ AGT  --- 192 ack 40 [13a 4 5 800] ------- [5:0 4:0 30 4] [89 0] 1 0
s 1.453150132 _4_ AGT  --- 214 tcp 41 [0 0 0 0] ------- [4:0 5:0 32 0] [109 0] 0 0
r 1.453150132 _4_ RTR  --- 214 tcp 41 [0 0 0 0] ------- [4:0 5:0 32 0] [109 0] 0 0
s 1.453150132 _4_ RTR  --- 214 tcp 41 [0 0 0 0] ------- [4:0 5:0 30 5] [109 0] 0 0
r 1.454977210 _4_ AGT  --- 194 ack 40 [13a 4 5 800] ------- [5:0 4:0 30 4] [90 0] 1 0
s 1.454977210 _4_ AGT  --- 215 tcp 41 [0 0 0 0] ------- [4:0 5:0 32 0] [110 0] 0 0
r 1.454977210 _4_ RTR  --- 215 tcp 41 [0 0 0 0] ------- [4:0 5:0 32 0] [110 0] 0 0
s 1.454977210 _4_ RTR  --- 215 tcp 41 [0 0 0 0] ------- [4:0 5:0 30 5] [110 0] 0 0
r 1.457004288 _4_ AGT  --- 196 ack 40 [13a 4 5 800] ------- [5:0 4:0 30 4] [91 0] 1 0
s 1.457004288 _4_ AGT  --- 216 tcp 41 [0 0 0 0] ------- [4:0 5:0 32 0] [111 0] 0 0
r 1.457004288 _4_ RTR  --- 216 tcp 41 [0 0 0 0] ------- [4:0 5:0 32 0] [111 0] 0 0
s 1.457004288 _4_ RTR  --- 216 tcp 41 [0 0 0 0] ------- [4:0 5:0 30 5] [111 0] 0 0
r 1.458831366 _4_ AGT  --- 199 ack 40 [13a 4 5 800] ------- [5:0 4:0 30 4] [92 0] 1 0
s 1.458831366 _4_ AGT  --- 217 tcp 41 [0 0 0 0] ------- [4:0 5:0 32 0] [112 0] 0 0
r 1.458831366 _4_ RTR  --- 217 tcp 41 [0 0 0 0] ------- [4:0 5:0 32 0] [112 0] 0 0
s 1.458831366 _4_ RTR  --- 217 tcp 41 [0 0 0 0] ------- [4:0 5:0 30 5] [112 0] 0 0
r 1.460705675 _5_ AGT  --- 193 tcp 41 [13a 5 4 800] ------- [4:0 5:0 30 5] [98 0] 1 0
s 1.460705675 _5_ AGT  --- 218 ack 40 [0 0 0 0] ------- [5:0 4:0 32 0] [98 0] 0 0
r 1.460705675 _5_ RTR  --- 218 ack 40 [0 0 0 0] ------- [5:0 4:0 32 0] [98 0] 0 0
s 1.460705675 _5_ RTR  --- 218 ack 40 [0 0 0 0] ------- [5:0 4:0 30 4] [98 0] 0 0
r 1.462551983 _4_ AGT  --- 201 ack 40 [13a 4 5 800] ------- [5:0 4:0 30 4] [93 0] 1 0
s 1.462551983 _4_ AGT  --- 219 tcp 41 [0 0 0 0] ------- [4:0 5:0 32 0] [113 0] 0 0
r 1.462551983 _4_ RTR  --- 219 tcp 41 [0 0 0 0] ------- [4:0 5:0 32 0] [113 0] 0 0
s 1.462551983 _4_ RTR  --- 219 tcp 41 [0 0 0 0] ------- [4:0 5:0 30 5] [113 0] 0 0
r 1.464419061 _4_ AGT  --- 206 ack 40 [13a 4 5 800] ------- [5:0 4:0 30 4] [94 0] 1 0
s 1.464419061 _4_ AGT  --- 220 tcp 41 [0 0 0 0] ------- [4:0 5:0 32 0] [114 0] 0 0
r 1.464419061 _4_ RTR  --- 220 tcp 41 [0 0 0 0] ------- [4:0 5:0 32 0] [114 0] 0 0
s 1.464419061 _4_ RTR  --- 220 tcp 41 [0 0 0 0] ------- [4:0 5:0 30 5] [114 0] 0 0
r 1.466466139 _4_ AGT  --- 210 ack 40 [13a 4 5 800] ------- [5:0 4:0 30 4] [95 0] 1 0
s 1.466466139 _4_ AGT  --- 221 tcp 41 [0 0 0 0] ------- [4:0 5:0 32 0] [115 0] 0 0
r 1.466466139 _4_ RTR  --- 221 tcp 41 [0 0 0 0] ------- [4:0 5:0 32 0] [115 0] 0 0
s 1.466466139 _4_ RTR  --- 221 tcp 41 [0 0 0 0] ------- [4:0 5:0 30 5] [115 0] 0 0
r 1.468440448 _5_ AGT  --- 195 tcp 41 [13a 5 4 800] ------- [4:0 5:0 30 5] [99 0] 1 0
s 1.468440448 _5_ AGT  --- 222 ack 40 [0 0 0 0] ------- [5:0 4:0 32 0] [99 0] 0 0
r 1.468440448 _5_ RTR  --- 222 ack 40 [0 0 0 0] ------- [5:0 4:0 32 0] [99 0] 0 0
s 1.468440448 _5_ RTR  --- 222 ack 40 [0 0 0 0] ------- [5:0 4:0 30 4] [99 0] 0 0
r 1.470475526 _5_ AGT  --- 197 tcp 41 [13a 5 4 800] ------- [4:0 5:0 30 5] [100 0] 1 0
s 1.470475526 _5_ AGT  --- 223 ack 40 [0 0 0 0] ------- [5:0 4:0 32 0] [100 0] 0 0
r 1.470475526 _5_ RTR  --- 223 ack 40 [0 0 0 0] ------- [5:0 4:0 32 0] [100 0] 0 0
s 1.470475526 _5_ RTR  --- 223 ack 40 [0 0 0 0] ------- [5:0 4:0 30 4] [100 0] 0 0
r 1.472361834 _4_ AGT  --- 211 ack 40 [13a 4 5 800] ------- [5:0 4:0 30 4] [96 0] 1 0
s 1.472361834 _4_ AGT  --- 224 tcp 41 [0 0 0 0] ------- [4:0 5:0 32 0] [116 0] 0 0
r 1.472361834 _4_ RTR  --- 224 tcp 41 [0 0 0 0] ------- [4:0 5:0 32 0] [116 0] 0 0
s 1.472361834 _4_ RTR  --- 224 tcp 41 [0 0 0 0] ------- [4:0 5:0 30 5] [116 0] 0 0
r 1.474368912 _4_ AGT  --- 213 ack 40 [13a 4 5 800] ------- [5:0 4:0 30 4] [97 0] 1 0
s 1.474368912 _4_ AGT  --- 225 tcp 41 [0 0 0 0] ------- [4:0 5:0 32 0] [117 0] 0 0
r 1.474368912 _4_ RTR  --- 225 tcp 41 [0 0 0 0] ------- [4:0 5:0 32 0] [117 0] 0 0
s 1.474368912 _4_ RTR  --- 225 tcp 41 [0 0 0 0] ------- [4:0 5:0 30 5] [117 0] 0 0
r 1.476275990 _4_ AGT  --- 218 ack 40 [13a 4 5 800] ------- [5:0 4:0 30 4] [98 0] 1 0
s 1.476275990 _4_ AGT  --- 226 tcp 41 [0 0 0 0] ------- [4:0 5:0 32 0] [118 0] 0 0
r 1.476275990 _4_ RTR  --- 226 tcp 41 [0 0 0 0] ------- [4:0 5:0 32 0] [118 0] 0 0
s 1.476275990 _4_ RTR  --- 226 tcp 41 [0 0 0 0] ------- [4:0 5:0 30 5] [118 0] 0 0
r 1.478150298 _5_ AGT  --- 198 tcp 41 [13a 5 4 800] ------- [4:0 5:0 30 5] [101 0] 1 0
s 1.478150298 _5_ AGT  --- 227 ack 40 [0 0 0 0] ------- [5:0 4:0 32 0] [101 0] 0 0
r 1.478150298 _5_ RTR  --- 227 ack 40 [0 0 0 0] ------- [5:0 4:0 32 0] [101 0] 0 0
s 1.478150298 _5_ RTR  --- 227 ack 40 [0 0 0 0] ------- [5:0 4:0 30 4] [101 0] 0 0
r 1.480036607 _4_ AGT  --- 222 ack 40 [13a 4 5 800] ------- [5:0 4:0 30 4] [99 0] 1 0
s 1.480036607 _4_ AGT  --- 228 tcp 41 [0 0 0 0] ------- [4:0 5:0 32 0] [119 0] 0 0
r 1.480036607 _4_ RTR  --- 228 tcp 41 [0 0 0 0] ------- [4:0 5:0 32 0] [119 0] 0 0
s 1.480036607 _4_ RTR  --- 228 tcp 41 [0 0 0 0] ------- [4:0 5:0 30 5] [119 0] 0 0
r 1.481863685 _4_ AGT  --- 223 ack 40 [13a 4 5 800] ------- [5:0 4:0 30 4] [100 0] 1 0
s 1.481863685 _4_ AGT  --- 229 tcp 41 [0 0 0 0] ------- [4:0 5:0 32 0] [120 0] 0 0
r 1.481863685 _4_ RTR  --- 229 tcp 41 [0 0 0 0] ------- [4:0 5:0 32 0] [120 0] 0 0
s 1.481863685 _4_ RTR  --- 229 tcp 41 [0 0 0 0] ------- [4:0 5:0 30 5] [120 0] 0 0
r 1.484057993 _5_ AGT  --- 200 tcp 41 [13a 5 4 800] ------- [4:0 5:0 30 5] [102 0] 1 0
s 1.484057993 _5_ AGT  --- 230 ack 40 [0 0 0 0] ------- [5:0 4:0 32 0] [102 0] 0 0
r 1.484057993 _5_ RTR  --- 230 ack 40 [0 0 0 0] ------- [5:0 4:0 32 0] [102 0] 0 0
s 1.484057993 _5_ RTR  --- 230 ack 40 [0 0 0 0] ------- [5:0 4:0 30 4] [102 0] 0 0
r 1.485984301 _4_ AGT  --- 227 ack 40 [13a 4 5 800] ------- [5:0 4:0 30 4] [101 0] 1 0
s 1.485984301 _4_ AGT  --- 231 tcp 41 [0 0 0 0] ------- [4:0 5:0 32 0] [121 0] 0 0
r 1.485984301 _4_ RTR  --- 231 tcp 41 [0 0 0 0] ------- [4:0 5:0 32 0] [121 0] 0 0
s 1.485984301 _4_ RTR  --- 231 tcp 41 [0 0 0 0] ------- [4:0 5:0 30 5] [121 0] 0 0
r 1.488118610 _5_ AGT  --- 204 tcp 41 [13a 5 4 800] ------- [4:0 5:0 30 5] [103 0] 1 0
s 1.488118610 _5_ AGT  --- 232 ack 40 [0 0 0 0] ------- [5:0 4:0 32 0] [103 0] 0 0
r 1.488118610 _5_ RTR  --- 232 ack 40 [0 0 0 0] ------- [5:0 4:0 32 0] [103 0] 0 0
s 1.488118610 _5_ RTR  --- 232 ack 40 [0 0 0 0] ------- [5:0 4:0 30 4] [103 0] 0 0
r 1.490073688 _5_ AGT  --- 205 tcp 41 [13a 5 4 800] ------- [4:0 5:0 30 5] [104 0] 1 0
s 1.490073688 _5_ AGT  --- 233 ack 40 [0 0 0 0] ------- [5:0 4:0 32 0] [104 0] 0 0
r 1.490073688 _5_ RTR  --- 233 ack 40 [0 0 0 0] ------- [5:0 4:0 32 0] [104 0] 0 0
s 1.490073688 _5_ RTR  --- 233 ack 40 [0 0 0 0] ------- [5:0 4:0 30 4] [104 0] 0 0
r 1.491988766 _5_ AGT  --- 207 tcp 41 [13a 5 4 800] ------- [4:0 5:0 30 5] [105 0] 1 0
s 1.491988766 _5_ AGT  --- 234 ack 40 [0 0 0 0] ------- [5:0 4:0 32 0] [105 0] 0 0
r 1.491988766 _5_ RTR  --- 234 ack 40 [0 0 0 0] ------- [5:0 4:0 32 0] [105 0] 0 0
s 1.491988766 _5_ RTR  --- 234 ack 40 [0 0 0 0] ------- [5:0 4:0 30 4] [105 0] 0 0
r 1.493915074 _4_ AGT  --- 230 ack 40 [13a 4 5 800] ------- [5:0 4:0 30 4] [102 0] 1 0
s 1.493915074 _4_ AGT  --- 235 tcp 41 [0 0 0 0] ------- [4:0 5:0 32 0] [122 0] 0 0
r 1.493915074 _4_ RTR  --- 235 tcp 41 [0 0 0 0] ------- [4:0 5:0 32 0] [122 0] 0 0
s 1.493915074 _4_ RTR  --- 235 tcp 41 [0 0 0 0] ------- [4:0 5:0 30 5] [122 0] 0 0
r 1.495949382 _5_ AGT  --- 208 tcp 41 [13a 5 4 800] ------- [4:0 5:0 30 5] [106 0] 1 0
s 1.495949382 _5_ AGT  --- 236 ack 40 [0 0 0 0] ------- [5:0 4:0 32 0] [106 0] 0 0
r 1.495949382 _5_ RTR  --- 236 ack 40 [0 0 0 0] ------- [5:0 4:0 32 0] [106 0] 0 0
s 1.495949382 _5_ RTR  --- 236 ack 40 [0 0 0 0] ------- [5:0 4:0 30 4] [106 0] 0 0
r 1.497835691 _4_ AGT  --- 232 ack 40 [13a 4 5 800] ------- [5:0 4:0 30 4] [103 0] 1 0
s 1.497835691 _4_ AGT  --- 237 tcp 41 [0 0 0 0] ------- [4:0 5:0 32 0] [123 0] 0 0
r 1.497835691 _4_ RTR  --- 237 tcp 41 [0 0 0 0] ------- [4:0 5:0 32 0] [123 0] 0 0
s 1.497835691 _4_ RTR  --- 237 tcp 41 [0 0 0 0] ------- [4:0 5:0 30 5] [123 0] 0 0
r 1.499962768 _4_ AGT  --- 233 ack 40 [13a 4 5 800] ------- [5:0 4:0 30 4] [104 0] 1 0
s 1.499962768 _4_ AGT  --- 238 tcp 41 [0 0 0 0] ------- [4:0 5:0 32 0] [124 0] 0 0
r 1.499962768 _4_ RTR  --- 238 tcp 41 [0 0 0 0] ------- [4:0 5:0 32 0] [124 0] 0 0
s 1.499962768 _4_ RTR  --- 238 tcp 41 [0 0 0 0] ------- [4:0 5:0 30 5] [124 0] 0 0
r 1.502057077 _5_ AGT  --- 209 tcp 41 [13a 5 4 800] ------- [4:0 5:0 30 5] [107 0] 1 0
s 1.502057077 _5_ AGT  --- 239 ack 40 [0 0 0 0] ------- [5:0 4:0 32 0] [107 0] 0 0
r 1.502057077 _5_ RTR  --- 239 ack 40 [0 0 0 0] ------- [5:0 4:0 32 0] [107 0] 0 0
s 1.502057077 _5_ RTR  --- 239 ack 40 [0 0 0 0] ------- [5:0 4:0 30 4] [107 0] 0 0
r 1.503923385 _4_ AGT  --- 234 ack 40 [13a 4 5 800] ------- [5:0 4:0 30 4] [105 0] 1 0
s 1.503923385 _4_ AGT  --- 240 tcp 41 [0 0 0 0] ------- [4:0 5:0 32 0] [125 0] 0 0
r 1.503923385 _4_ RTR  --- 240 tcp 41 [0 0 0 0] ------- [4:0 5:0 32 0] [125 0] 0 0
s 1.503923385 _4_ RTR  --- 240 tcp 41 [0 0 0 0] ------- [4:0 5:0 30 5] [125 0] 0 0
r 1.505810463 _4_ AGT  --- 236 ack 40 [13a 4 5 800] ------- [5:0 4:0 30 4] [106 0] 1 0
s 1.505810463 _4_ AGT  --- 241 tcp 41 [0 0 0 0] ------- [4:0 5:0 32 0] [126 0] 0 0
r 1.505810463 _4_ RTR  --- 241 tcp 41 [0 0 0 0] ------- [4:0 5:0 32 0] [126 0] 0 0
s 1.505810463 _4_ RTR  --- 241 tcp 41 [0 0 0 0] ------- [4:0 5:0 30 5] [126 0] 0 0
r 1.508029623 _9_ AGT  --- 202 tcp 41 [13a 9 3 800] ------- [0:0 9:0 29 9] [1 0] 2 0
s 1.508029623 _9_ AGT  --- 242 ack 40 [0 0 0 0] ------- [9:0 0:0 32 0] [1 0] 0 0
r 1.508029623 _9_ RTR  --- 242 ack 40 [0 0 0 0] ------- [9:0 0:0 32 0] [1 0] 0 0
s 1.508029623 _9_ RTR  --- 242 ack 40 [0 0 0 0] ------- [9:0 0:0 30 3] [1 0] 0 0
r 1.509915871 _3_ RTR  --- 242 ack 40 [13a 3 9 800] ------- [9:0 0:0 30 3] [1 0] 1 0
f 1.509915871 _3_ RTR  --- 242 ack 40 [13a 3 9 800] ------- [9:0 0:0 29 0] [1 0] 1 0
r 1.511870119 _9_ AGT  --- 203 tcp 41 [13a 9 3 800] ------- [0:0 9:0 29 9] [2 0] 2 0
s 1.511870119 _9_ AGT  --- 243 ack 40 [0 0 0 0] ------- [9:0 0:0 32 0] [2 0] 0 0
r 1.511870119 _9_ RTR  --- 243 ack 40 [0 0 0 0] ------- [9:0 0:0 32 0] [2 0] 0 0
s 1.511870119 _9_ RTR  --- 243 ack 40 [0 0 0 0] ------- [9:0 0:0 30 3] [2 0] 0 0
r 1.513716367 _3_ RTR  --- 243 ack 40 [13a 3 9 800] ------- [9:0 0:0 30 3] [2 0] 1 0
f 1.513716367 _3_ RTR  --- 243 ack 40 [13a 3 9 800] ------- [9:0 0:0 29 0] [2 0] 1 0
r 1.515987633 _4_ AGT  --- 239 ack 40 [13a 4 5 800] ------- [5:0 4:0 30 4] [107 0] 1 0
s 1.515987633 _4_ AGT  --- 244 tcp 41 [0 0 0 0] ------- [4:0 5:0 32 0] [127 0] 0 0
r 1.515987633 _4_ RTR  --- 244 tcp 41 [0 0 0 0] ------- [4:0 5:0 32 0] [127 0] 0 0
s 1.515987633 _4_ RTR  --- 244 tcp 41 [0 0 0 0] ------- [4:0 5:0 30 5] [127 0] 0 0
r 1.517861941 _5_ AGT  --- 212 tcp 41 [13a 5 4 800] ------- [4:0 5:0 30 5] [108 0] 1 0
s 1.517861941 _5_ AGT  --- 245 ack 40 [0 0 0 0] ------- [5:0 4:0 32 0] [108 0] 0 0
r 1.517861941 _5_ RTR  --- 245 ack 40 [0 0 0 0] ------- [5:0 4:0 32 0] [108 0] 0 0
s 1.517861941 _5_ RTR  --- 245 ack 40 [0 0 0 0] ------- [5:0 4:0 30 4] [108 0] 0 0
r 1.520152721 _0_ AGT  --- 242 ack 40 [13a 0 3 800] ------- [9:0 0:0 29 0] [1 0] 2 0
s 1.520152721 _0_ AGT  --- 246 tcp 41 [0 0 0 0] ------- [0:0 9:0 32 0] [3 0] 0 0
r 1.520152721 _0_ RTR  --- 246 tcp 41 [0 0 0 0] ------- [0:0 9:0 32 0] [3 0] 0 0
s 1.520152721 _0_ AGT  --- 247 tcp 41 [0 0 0 0] ------- [0:0 9:0 32 0] [4 0] 0 0
r 1.520152721 _0_ RTR  --- 247 tcp 41 [0 0 0 0] ------- [0:0 9:0 32 0] [4 0] 0 0
s 1.520152721 _0_ RTR  --- 246 tcp 41 [0 0 0 0] ------- [0:0 9:0 30 3] [3 0] 0 0
s 1.520152721 _0_ RTR  --- 247 tcp 41 [0 0 0 0] ------- [0:0 9:0 30 3] [4 0] 0 0
r 1.522137333 _5_ AGT  --- 214 tcp 41 [13a 5 4 800] ------- [4:0 5:0 30 5] [109 0] 1 0
s 1.522137333 _5_ AGT  --- 248 ack 40 [0 0 0 0] ------- [5:0 4:0 32 0] [109 0] 0 0
r 1.522137333 _5_ RTR  --- 248 ack 40 [0 0 0 0] ------- [5:0 4:0 32 0] [109 0] 0 0
s 1.522137333 _5_ RTR  --- 248 ack 40 [0 0 0 0] ------- [5:0 4:0 30 4] [109 0] 0 0
r 1.523983641 _4_ AGT  --- 245 ack 40 [13a 4 5 800] ------- [5:0 4:0 30 4] [108 0] 1 0
s 1.523983641 _4_ AGT  --- 249 tcp 41 [0 0 0 0] ------- [4:0 5:0 32 0] [128 0] 0 0
r 1.523983641 _4_ RTR  --- 249 tcp 41 [0 0 0 0] ------- [4:0 5:0 32 0] [128 0] 0 0
s 1.523983641 _4_ RTR  --- 249 tcp 41 [0 0 0 0] ------- [4:0 5:0 30 5] [128 0] 0 0
r 1.525830719 _4_ AGT  --- 248 ack 40 [13a 4 5 800] ------- [5:0 4:0 30 4] [109 0] 1 0
s 1.525830719 _4_ AGT  --- 250 tcp 41 [0 0 0 0] ------- [4:0 5:0 32 0] [129 0] 0 0
r 1.525830719 _4_ RTR  --- 250 tcp 41 [0 0 0 0] ------- [4:0 5:0 32 0] [129 0] 0 0
s 1.525830719 _4_ RTR  --- 250 tcp 41 [0 0 0 0] ------- [4:0 5:0 30 5] [129 0] 0 0
r 1.527825027 _5_ AGT  --- 215 tcp 41 [13a 5 4 800] ------- [4:0 5:0 30 5] [110 0] 1 0
s 1.527825027 _5_ AGT  --- 251 ack 40 [0 0 0 0] ------- [5:0 4:0 32 0] [110 0] 0 0
r 1.527825027 _5_ RTR  --- 251 ack 40 [0 0 0 0] ------- [5:0 4:0 32 0] [110 0] 0 0
s 1.527825027 _5_ RTR  --- 251 ack 40 [0 0 0 0] ------- [5:0 4:0 30 4] [110 0] 0 0
r 1.529700105 _5_ AGT  --- 216 tcp 41 [13a 5 4 800] ------- [4:0 5:0 30 5] [111 0] 1 0
s 1.529700105 _5_ AGT  --- 252 ack 40 [0 0 0 0] ------- [5:0 4:0 32 0] [111 0] 0 0
r 1.529700105 _5_ RTR  --- 252 ack 40 [0 0 0 0] ------- [5:0 4:0 32 0] [111 0] 0 0
s 1.529700105 _5_ RTR  --- 252 ack 40 [0 0 0 0] ------- [5:0 4:0 30 4] [111 0] 0 0
r 1.531594412 _3_ RTR  --- 246 tcp 41 [13a 3 0 800] ------- [0:0 9:0 30 3] [3 0] 1 0
f 1.531594412 _3_ RTR  --- 246 tcp 41 [13a 3 0 800] ------- [0:0 9:0 29 9] [3 0] 1 0
r 1.533428841 _3_ RTR  --- 247 tcp 41 [13a 3 0 800] ------- [0:0 9:0 30 3] [4 0] 1 0
f 1.533428841 _3_ RTR  --- 247 tcp 41 [13a 3 0 800] ------- [0:0 9:0 29 9] [4 0] 1 0
r 1.535534662 _0_ AGT  --- 243 ack 40 [13a 0 3 800] ------- [9:0 0:0 29 0] [2 0] 2 0
s 1.535534662 _0_ AGT  --- 253 tcp 41 [0 0 0 0] ------- [0:0 9:0 32 0] [5 0] 0 0
r 1.535534662 _0_ RTR  --- 253 tcp 41 [0 0 0 0] ------- [0:0 9:0 32 0] [5 0] 0 0
s 1.535534662 _0_ AGT  --- 254 tcp 41 [0 0 0 0] ------- [0:0 9:0 32 0] [6 0] 0 0
r 1.535534662 _0_ RTR  --- 254 tcp 41 [0 0 0 0] ------- [0:0 9:0 32 0] [6 0] 0 0
s 1.535534662 _0_ RTR  --- 253 tcp 41 [0 0 0 0] ------- [0:0 9:0 30 3] [5 0] 0 0
s 1.535534662 _0_ RTR  --- 254 tcp 41 [0 0 0 0] ------- [0:0 9:0 30 3] [6 0] 0 0
r 1.537619274 _5_ AGT  --- 217 tcp 41 [13a 5 4 800] ------- [4:0 5:0 30 5] [112 0] 1 0
s 1.537619274 _5_ AGT  --- 255 ack 40 [0 0 0 0] ------- [5:0 4:0 32 0] [112 0] 0 0
r 1.537619274 _5_ RTR  --- 255 ack 40 [0 0 0 0] ------- [5:0 4:0 32 0] [112 0] 0 0
s 1.537619274 _5_ RTR  --- 255 ack 40 [0 0 0 0] ------- [5:0 4:0 30 4] [112 0] 0 0
r 1.539545582 _4_ AGT  --- 251 ack 40 [13a 4 5 800] ------- [5:0 4:0 30 4] [110 0] 1 0
s 1.539545582 _4_ AGT  --- 256 tcp 41 [0 0 0 0] ------- [4:0 5:0 32 0] [130 0] 0 0
r 1.539545582 _4_ RTR  --- 256 tcp 41 [0 0 0 0] ------- [4:0 5:0 32 0] [130 0] 0 0
s 1.539545582 _4_ RTR  --- 256 tcp 41 [0 0 0 0] ------- [4:0 5:0 30 5] [130 0] 0 0
r 1.541479828 _3_ RTR  --- 253 tcp 41 [13a 3 0 800] ------- [0:0 9:0 30 3] [5 0] 1 0
f 1.541479828 _3_ RTR  --- 253 tcp 41 [13a 3 0 800] ------- [0:0 9:0 29 9] [5 0] 1 0
r 1.543514075 _9_ AGT  --- 246 tcp 41 [13a 9 3 800] ------- [0:0 9:0 29 9] [3 0] 2 0
s 1.543514075 _9_ AGT  --- 257 ack 40 [0 0 0 0] ------- [9:0 0:0 32 0] [3 0] 0 0
r 1.543514075 _9_ RTR  --- 257 ack 40 [0 0 0 0] ------- [9:0 0:0 32 0] [3 0] 0 0
s 1.543514075 _9_ RTR  --- 257 ack 40 [0 0 0 0] ------- [9:0 0:0 30 3] [3 0] 0 0
r 1.545360321 _3_ RTR  --- 257 ack 40 [13a 3 9 800] ------- [9:0 0:0 30 3] [3 0] 1 0
f 1.545360321 _3_ RTR  --- 257 ack 40 [13a 3 9 800] ------- [9:0 0:0 29 0] [3 0] 1 0
r 1.547434568 _9_ AGT  --- 247 tcp 41 [13a 9 3 800] ------- [0:0 9:0 29 9] [4 0] 2 0
s 1.547434568 _9_ AGT  --- 258 ack 40 [0 0 0 0] ------- [9:0 0:0 32 0] [4 0] 0 0
r 1.547434568 _9_ RTR  --- 258 ack 40 [0 0 0 0] ------- [9:0 0:0 32 0] [4 0] 0 0
s 1.547434568 _9_ RTR  --- 258 ack 40 [0 0 0 0] ------- [9:0 0:0 30 3] [4 0] 0 0
r 1.549489563 _9_ AGT  --- 253 tcp 41 [13a 9 3 800] ------- [0:0 9:0 29 9] [5 0] 2 0
s 1.549489563 _9_ AGT  --- 259 ack 40 [0 0 0 0] ------- [9:0 0:0 32 0] [5 0] 0 0
r 1.549489563 _9_ RTR  --- 259 ack 40 [0 0 0 0] ------- [9:0 0:0 32 0] [5 0] 0 0
s 1.549489563 _9_ RTR  --- 259 ack 40 [0 0 0 0] ------- [9:0 0:0 30 3] [5 0] 0 0
r 1.551316133 _0_ AGT  --- 257 ack 40 [13a 0 3 800] ------- [9:0 0:0 29 0] [3 0] 2 0
s 1.551316133 _0_ AGT  --- 260 tcp 41 [0 0 0 0] ------- [0:0 9:0 32 0] [7 0] 0 0
r 1.551316133 _0_ RTR  --- 260 tcp 41 [0 0 0 0] ------- [0:0 9:0 32 0] [7 0] 0 0
s 1.551316133 _0_ AGT  --- 261 tcp 41 [0 0 0 0] ------- [0:0 9:0 32 0] [8 0] 0 0
r 1.551316133 _0_ RTR  --- 261 tcp 41 [0 0 0 0] ------- [0:0 9:0 32 0] [8 0] 0 0
s 1.551316133 _0_ RTR  --- 260 tcp 41 [0 0 0 0] ------- [0:0 9:0 30 3] [7 0] 0 0
s 1.551316133 _0_ RTR  --- 261 tcp 41 [0 0 0 0] ------- [0:0 9:0 30 3] [8 0] 0 0
r 1.553389953 _3_ RTR  --- 254 tcp 41 [13a 3 0 800] ------- [0:0 9:0 30 3] [6 0] 1 0
f 1.553389953 _3_ RTR  --- 254 tcp 41 [13a 3 0 800] ------- [0:0 9:0 29 9] [6 0] 1 0
r 1.555244199 _9_ AGT  --- 254 tcp 41 [13a 9 3 800] ------- [0:0 9:0 29 9] [6 0] 2 0
s 1.555244199 _9_ AGT  --- 262 ack 40 [0 0 0 0] ------- [9:0 0:0 32 0] [6 0] 0 0
r 1.555244199 _9_ RTR  --- 262 ack 40 [0 0 0 0] ------- [9:0 0:0 32 0] [6 0] 0 0
s 1.555244199 _9_ RTR  --- 262 ack 40 [0 0 0 0] ------- [9:0 0:0 30 3] [6 0] 0 0
r 1.557190445 _3_ RTR  --- 258 ack 40 [13a 3 9 800] ------- [9:0 0:0 30 3] [4 0] 1 0
f 1.557190445 _3_ RTR  --- 258 ack 40 [13a 3 9 800] ------- [9:0 0:0 29 0] [4 0] 1 0
r 1.559234824 _3_ RTR  --- 260 tcp 41 [13a 3 0 800] ------- [0:0 9:0 30 3] [7 0] 1 0
f 1.559234824 _3_ RTR  --- 260 tcp 41 [13a 3 0 800] ------- [0:0 9:0 29 9] [7 0] 1 0
r 1.561089251 _3_ RTR  --- 261 tcp 41 [13a 3 0 800] ------- [0:0 9:0 30 3] [8 0] 1 0
f 1.561089251 _3_ RTR  --- 261 tcp 41 [13a 3 0 800] ------- [0:0 9:0 29 9] [8 0] 1 0
r 1.563155070 _0_ AGT  --- 258 ack 40 [13a 0 3 800] ------- [9:0 0:0 29 0] [4 0] 2 0
s 1.563155070 _0_ AGT  --- 263 tcp 41 [0 0 0 0] ------- [0:0 9:0 32 0] [9 0] 0 0
r 1.563155070 _0_ RTR  --- 263 tcp 41 [0 0 0 0] ------- [0:0 9:0 32 0] [9 0] 0 0
s 1.563155070 _0_ AGT  --- 264 tcp 41 [0 0 0 0] ------- [0:0 9:0 32 0] [10 0] 0 0
r 1.563155070 _0_ RTR  --- 264 tcp 41 [0 0 0 0] ------- [0:0 9:0 32 0] [10 0] 0 0
s 1.563155070 _0_ RTR  --- 263 tcp 41 [0 0 0 0] ------- [0:0 9:0 30 3] [9 0] 0 0
s 1.563155070 _0_ RTR  --- 264 tcp 41 [0 0 0 0] ------- [0:0 9:0 30 3] [10 0] 0 0
r 1.565091728 _4_ AGT  --- 252 ack 40 [13a 4 5 800] ------- [5:0 4:0 30 4] [111 0] 1 0
s 1.565091728 _4_ AGT  --- 265 tcp 41 [0 0 0 0] ------- [4:0 5:0 32 0] [131 0] 0 0
r 1.565091728 _4_ RTR  --- 265 tcp 41 [0 0 0 0] ------- [4:0 5:0 32 0] [131 0] 0 0
s 1.565091728 _4_ RTR  --- 265 tcp 41 [0 0 0 0] ------- [4:0 5:0 30 5] [131 0] 0 0
r 1.566966036 _5_ AGT  --- 219 tcp 41 [13a 5 4 800] ------- [4:0 5:0 30 5] [113 0] 1 0
s 1.566966036 _5_ AGT  --- 266 ack 40 [0 0 0 0] ------- [5:0 4:0 32 0] [113 0] 0 0
r 1.566966036 _5_ RTR  --- 266 ack 40 [0 0 0 0] ------- [5:0 4:0 32 0] [113 0] 0 0
s 1.566966036 _5_ RTR  --- 266 ack 40 [0 0 0 0] ------- [5:0 4:0 30 4] [113 0] 0 0
r 1.568920340 _3_ RTR  --- 263 tcp 41 [13a 3 0 800] ------- [0:0 9:0 30 3] [9 0] 1 0
f 1.568920340 _3_ RTR  --- 263 tcp 41 [13a 3 0 800] ------- [0:0 9:0 29 9] [9 0] 1 0
r 1.570817287 _3_ RTR  --- 259 ack 40 [13a 3 9 800] ------- [9:0 0:0 30 3] [5 0] 1 0
f 1.570817287 _3_ RTR  --- 259 ack 40 [13a 3 9 800] ------- [9:0 0:0 29 0] [5 0] 1 0
r 1.572801666 _3_ RTR  --- 264 tcp 41 [13a 3 0 800] ------- [0:0 9:0 30 3] [10 0] 1 0
f 1.572801666 _3_ RTR  --- 264 tcp 41 [13a 3 0 800] ------- [0:0 9:0 29 9] [10 0] 1 0
r 1.574738613 _3_ RTR  --- 262 ack 40 [13a 3 9 800] ------- [9:0 0:0 30 3] [6 0] 1 0
f 1.574738613 _3_ RTR  --- 262 ack 40 [13a 3 9 800] ------- [9:0 0:0 29 0] [6 0] 1 0
r 1.576772858 _9_ AGT  --- 260 tcp 41 [13a 9 3 800] ------- [0:0 9:0 29 9] [7 0] 2 0
s 1.576772858 _9_ AGT  --- 267 ack 40 [0 0 0 0] ------- [9:0 0:0 32 0] [7 0] 0 0
r 1.576772858 _9_ RTR  --- 267 ack 40 [0 0 0 0] ------- [9:0 0:0 32 0] [7 0] 0 0
s 1.576772858 _9_ RTR  --- 267 ack 40 [0 0 0 0] ------- [9:0 0:0 30 3] [7 0] 0 0
r 1.578607852 _9_ AGT  --- 261 tcp 41 [13a 9 3 800] ------- [0:0 9:0 29 9] [8 0] 2 0
s 1.578607852 _9_ AGT  --- 268 ack 40 [0 0 0 0] ------- [9:0 0:0 32 0] [8 0] 0 0
r 1.578607852 _9_ RTR  --- 268 ack 40 [0 0 0 0] ------- [9:0 0:0 32 0] [8 0] 0 0
s 1.578607852 _9_ RTR  --- 268 ack 40 [0 0 0 0] ------- [9:0 0:0 30 3] [8 0] 0 0
r 1.580454097 _3_ RTR  --- 267 ack 40 [13a 3 9 800] ------- [9:0 0:0 30 3] [7 0] 1 0
f 1.580454097 _3_ RTR  --- 267 ack 40 [13a 3 9 800] ------- [9:0 0:0 29 0] [7 0] 1 0
r 1.582321091 _3_ RTR  --- 268 ack 40 [13a 3 9 800] ------- [9:0 0:0 30 3] [8 0] 1 0
f 1.582321091 _3_ RTR  --- 268 ack 40 [13a 3 9 800] ------- [9:0 0:0 29 0] [8 0] 1 0
r 1.584275336 _9_ AGT  --- 263 tcp 41 [13a 9 3 800] ------- [0:0 9:0 29 9] [9 0] 2 0
s 1.584275336 _9_ AGT  --- 269 ack 40 [0 0 0 0] ------- [9:0 0:0 32 0] [9 0] 0 0
r 1.584275336 _9_ RTR  --- 269 ack 40 [0 0 0 0] ------- [9:0 0:0 32 0] [9 0] 0 0
s 1.584275336 _9_ RTR  --- 269 ack 40 [0 0 0 0] ------- [9:0 0:0 30 3] [9 0] 0 0
r 1.586441902 _0_ AGT  --- 259 ack 40 [13a 0 3 800] ------- [9:0 0:0 29 0] [5 0] 2 0
s 1.586441902 _0_ AGT  --- 270 tcp 41 [0 0 0 0] ------- [0:0 9:0 32 0] [11 0] 0 0
r 1.586441902 _0_ RTR  --- 270 tcp 41 [0 0 0 0] ------- [0:0 9:0 32 0] [11 0] 0 0
s 1.586441902 _0_ AGT  --- 271 tcp 41 [0 0 0 0] ------- [0:0 9:0 32 0] [12 0] 0 0
r 1.586441902 _0_ RTR  --- 271 tcp 41 [0 0 0 0] ------- [0:0 9:0 32 0] [12 0] 0 0
s 1.586441902 _0_ RTR  --- 270 tcp 41 [0 0 0 0] ------- [0:0 9:0 30 3] [11 0] 0 0
s 1.586441902 _0_ RTR  --- 271 tcp 41 [0 0 0 0] ------- [0:0 9:0 30 3] [12 0] 0 0
r 1.588346514 _5_ AGT  --- 220 tcp 41 [13a 5 4 800] ------- [4:0 5:0 30 5] [114 0] 1 0
s 1.588346514 _5_ AGT  --- 272 ack 40 [0 0 0 0] ------- [5:0 4:0 32 0] [114 0] 0 0
r 1.588346514 _5_ RTR  --- 272 ack 40 [0 0 0 0] ------- [5:0 4:0 32 0] [114 0] 0 0
s 1.588346514 _5_ RTR  --- 272 ack 40 [0 0 0 0] ------- [5:0 4:0 30 4] [114 0] 0 0
r 1.590452822 _4_ AGT  --- 255 ack 40 [13a 4 5 800] ------- [5:0 4:0 30 4] [112 0] 1 0
s 1.590452822 _4_ AGT  --- 273 tcp 41 [0 0 0 0] ------- [4:0 5:0 32 0] [132 0] 0 0
r 1.590452822 _4_ RTR  --- 273 tcp 41 [0 0 0 0] ------- [4:0 5:0 32 0] [132 0] 0 0
s 1.590452822 _4_ RTR  --- 273 tcp 41 [0 0 0 0] ------- [4:0 5:0 30 5] [132 0] 0 0
r 1.592359899 _4_ AGT  --- 266 ack 40 [13a 4 5 800] ------- [5:0 4:0 30 4] [113 0] 1 0
s 1.592359899 _4_ AGT  --- 274 tcp 41 [0 0 0 0] ------- [4:0 5:0 32 0] [133 0] 0 0
r 1.592359899 _4_ RTR  --- 274 tcp 41 [0 0 0 0] ------- [4:0 5:0 32 0] [133 0] 0 0
s 1.592359899 _4_ RTR  --- 274 tcp 41 [0 0 0 0] ------- [4:0 5:0 30 5] [133 0] 0 0
r 1.594314207 _5_ AGT  --- 221 tcp 41 [13a 5 4 800] ------- [4:0 5:0 30 5] [115 0] 1 0
s 1.594314207 _5_ AGT  --- 275 ack 40 [0 0 0 0] ------- [5:0 4:0 32 0] [115 0] 0 0
r 1.594314207 _5_ RTR  --- 275 ack 40 [0 0 0 0] ------- [5:0 4:0 32 0] [115 0] 0 0
s 1.594314207 _5_ RTR  --- 275 ack 40 [0 0 0 0] ------- [5:0 4:0 30 4] [115 0] 0 0
r 1.596188509 _3_ RTR  --- 270 tcp 41 [13a 3 0 800] ------- [0:0 9:0 30 3] [11 0] 1 0
f 1.596188509 _3_ RTR  --- 270 tcp 41 [13a 3 0 800] ------- [0:0 9:0 29 9] [11 0] 1 0
r 1.598145455 _3_ RTR  --- 269 ack 40 [13a 3 9 800] ------- [9:0 0:0 30 3] [9 0] 1 0
f 1.598145455 _3_ RTR  --- 269 ack 40 [13a 3 9 800] ------- [9:0 0:0 29 0] [9 0] 1 0
r 1.600149832 _3_ RTR  --- 271 tcp 41 [13a 3 0 800] ------- [0:0 9:0 30 3] [12 0] 1 0
f 1.600149832 _3_ RTR  --- 271 tcp 41 [13a 3 0 800] ------- [0:0 9:0 29 9] [12 0] 1 0
r 1.602184076 _9_ AGT  --- 264 tcp 41 [13a 9 3 800] ------- [0:0 9:0 29 9] [10 0] 2 0
s 1.602184076 _9_ AGT  --- 276 ack 40 [0 0 0 0] ------- [9:0 0:0 32 0] [10 0] 0 0
r 1.602184076 _9_ RTR  --- 276 ack 40 [0 0 0 0] ------- [9:0 0:0 32 0] [10 0] 0 0
s 1.602184076 _9_ RTR  --- 276 ack 40 [0 0 0 0] ------- [9:0 0:0 30 3] [10 0] 0 0
r 1.604170320 _3_ RTR  --- 276 ack 40 [13a 3 9 800] ------- [9:0 0:0 30 3] [10 0] 1 0
f 1.604170320 _3_ RTR  --- 276 ack 40 [13a 3 9 800] ------- [9:0 0:0 29 0] [10 0] 1 0
r 1.606016137 _0_ AGT  --- 262 ack 40 [13a 0 3 800] ------- [9:0 0:0 29 0] [6 0] 2 0
s 1.606016137 _0_ AGT  --- 277 tcp 41 [0 0 0 0] ------- [0:0 9:0 32 0] [13 0] 0 0
r 1.606016137 _0_ RTR  --- 277 tcp 41 [0 0 0 0] ------- [0:0 9:0 32 0] [13 0] 0 0
s 1.606016137 _0_ AGT  --- 278 tcp 41 [0 0 0 0] ------- [0:0 9:0 32 0] [14 0] 0 0
r 1.606016137 _0_ RTR  --- 278 tcp 41 [0 0 0 0] ------- [0:0 9:0 32 0] [14 0] 0 0
s 1.606016137 _0_ RTR  --- 277 tcp 41 [0 0 0 0] ------- [0:0 9:0 30 3] [13 0] 0 0
s 1.606016137 _0_ RTR  --- 278 tcp 41 [0 0 0 0] ------- [0:0 9:0 30 3] [14 0] 0 0
r 1.607862560 _0_ AGT  --- 267 ack 40 [13a 0 3 800] ------- [9:0 0:0 29 0] [7 0] 2 0
s 1.607862560 _0_ AGT  --- 279 tcp 41 [0 0 0 0] ------- [0:0 9:0 32 0] [15 0] 0 0
r 1.607862560 _0_ RTR  --- 279 tcp 41 [0 0 0 0] ------- [0:0 9:0 32 0] [15 0] 0 0
s 1.607862560 _0_ AGT  --- 280 tcp 41 [0 0 0 0] ------- [0:0 9:0 32 0] [16 0] 0 0
r 1.607862560 _0_ RTR  --- 280 tcp 41 [0 0 0 0] ------- [0:0 9:0 32 0] [16 0] 0 0
s 1.607862560 _0_ RTR  --- 279 tcp 41 [0 0 0 0] ------- [0:0 9:0 30 3] [15 0] 0 0
s 1.607862560 _0_ RTR  --- 280 tcp 41 [0 0 0 0] ------- [0:0 9:0 30 3] [16 0] 0 0