n -t * -s 0  -x 101 -y 50 -Z 0 -z 25  -v circle -c black
n -t * -s 1  -x 582 -y 329 -Z 0 -z 25  -v circle -c black
n -t * -s 2  -x 970 -y 933 -Z 0 -z 25  -v circle -c black
n -t * -s 3  -x 792 -y 633 -Z 0 -z 25  -v circle -c black
n -t * -s 4  -x 110 -y 49 -Z 0 -z 25  -v circle -c black
n -t * -s 5  -x 244 -y 19 -Z 0 -z 25  -v circle -c black
n -t * -s 6  -x 380 -y 150 -Z 0 -z 25  -v circle -c black
n -t * -s 7  -x 626 -y 166 -Z 0 -z 25  -v circle -c black
n -t * -s 8  -x 689 -y 702 -Z 0 -z 25  -v circle -c black
n -t * -s 9  -x 12 -y 146 -Z 0 -z 25  -v circle -c black
V -t * -v 1.0a5 -a 0
W -t * -x 1000 -y 1000
A -t * -n 1 -p 0 -o 0x7fffffff -c 30 -a 1
A -t * -h 1 -m 1073741823 -s 0
+ -t 0.010000000 -s 0 -d -1 -p tcp -e 40 -c 2 -a 0 -i 0 -k AGT 
- -t 0.010000000 -s 0 -d -1 -p tcp -e 40 -c 2 -a 0 -i 0 -k AGT
h -t 0.010000000 -s 0 -d -1 -p tcp -e 40 -c 2 -a 0 -i 0 -k AGT
+ -t 0.010000000 -s 0 -d -1 -p AODV -e 48 -c 2 -a 0 -i 0 -k RTR 
- -t 0.010000000 -s 0 -d -1 -p AODV -e 48 -c 2 -a 0 -i 0 -k RTR
h -t 0.010000000 -s 0 -d -1 -p AODV -e 48 -c 2 -a 0 -i 0 -k RTR
r -t 0.010988030 -s 4 -d -1 -p AODV -e 48 -c 2 -a 0 -i 0 -k RTR
+ -t 0.010988030 -s 4 -d 0 -p AODV -e 44 -c 2 -a 0 -i 0 -k RTR 
- -t 0.010988030 -s 4 -d 0 -p AODV -e 44 -c 2 -a 0 -i 0 -k RTR
h -t 0.010988030 -s 4 -d 0 -p AODV -e 44 -c 2 -a 0 -i 0 -k RTR
r -t 0.010988436 -s 9 -d -1 -p AODV -e 48 -c 2 -a 0 -i 0 -k RTR
r -t 0.010988488 -s 5 -d -1 -p AODV -e 48 -c 2 -a 0 -i 0 -k RTR
+ -t 0.011869663 -s 9 -d -1 -p AODV -e 48 -c 2 -a 0 -i 0 -k RTR 
- -t 0.011869663 -s 9 -d -1 -p AODV -e 48 -c 2 -a 0 -i 0 -k RTR
h -t 0.011869663 -s 9 -d -1 -p AODV -e 48 -c 2 -a 0 -i 0 -k RTR
r -t 0.013018099 -s 0 -d -1 -p AODV -e 48 -c 2 -a 0 -i 0 -k RTR
r -t 0.013018123 -s 4 -d -1 -p AODV -e 48 -c 2 -a 0 -i 0 -k RTR
+ -t 0.015400222 -s 5 -d -1 -p AODV -e 48 -c 2 -a 0 -i 0 -k RTR 
- -t 0.015400222 -s 5 -d -1 -p AODV -e 48 -c 2 -a 0 -i 0 -k RTR
h -t 0.015400222 -s 5 -d -1 -p AODV -e 48 -c 2 -a 0 -i 0 -k RTR
+ -t 0.016828281 -s 0 -d 4 -p tcp -e 40 -c 2 -a 0 -i 0 -k RTR 
- -t 0.016828281 -s 0 -d 4 -p tcp -e 40 -c 2 -a 0 -i 0 -k RTR
h -t 0.016828281 -s 0 -d 4 -p tcp -e 40 -c 2 -a 0 -i 0 -k RTR
r -t 0.018692371 -s 4 -d 4 -p tcp -e 40 -c 2 -a 0 -i 0 -k AGT
+ -t 0.018692371 -s 4 -d -1 -p ack -e 40 -c 2 -a 0 -i 1 -k AGT 
- -t 0.018692371 -s 4 -d -1 -p ack -e 40 -c 2 -a 0 -i 1 -k AGT
h -t 0.018692371 -s 4 -d -1 -p ack -e 40 -c 2 -a 0 -i 1 -k AGT
+ -t 0.018692371 -s 4 -d 0 -p ack -e 40 -c 2 -a 0 -i 1 -k RTR 
- -t 0.018692371 -s 4 -d 0 -p ack -e 40 -c 2 -a 0 -i 1 -k RTR
h -t 0.018692371 -s 4 -d 0 -p ack -e 40 -c 2 -a 0 -i 1 -k RTR
r -t 0.020125287 -s 4 -d -1 -p AODV -e 48 -c 2 -a 0 -i 0 -k RTR
r -t 0.020125317 -s 0 -d -1 -p AODV -e 48 -c 2 -a 0 -i 0 -k RTR
r -t 0.020125458 -s 6 -d -1 -p AODV -e 48 -c 2 -a 0 -i 0 -k RTR
r -t 0.021935377 -s 0 -d 0 -p ack -e 40 -c 2 -a 0 -i 1 -k AGT
+ -t 0.021935377 -s 0 -d -1 -p tcp -e 1540 -c 2 -a 0 -i 2 -k AGT 
- -t 0.021935377 -s 0 -d -1 -p tcp -e 1540 -c 2 -a 0 -i 2 -k AGT
h -t 0.021935377 -s 0 -d -1 -p tcp -e 1540 -c 2 -a 0 -i 2 -k AGT
+ -t 0.021935377 -s 0 -d -1 -p tcp -e 1540 -c 2 -a 0 -i 3 -k AGT 
- -t 0.021935377 -s 0 -d -1 -p tcp -e 1540 -c 2 -a 0 -i 3 -k AGT
h -t 0.021935377 -s 0 -d -1 -p tcp -e 1540 -c 2 -a 0 -i 3 -k AGT
+ -t 0.021935377 -s 0 -d 4 -p tcp -e 1540 -c 2 -a 0 -i 2 -k RTR 
- -t 0.021935377 -s 0 -d 4 -p tcp -e 1540 -c 2 -a 0 -i 2 -k RTR
h -t 0.021935377 -s 0 -d 4 -p tcp -e 1540 -c 2 -a 0 -i 2 -k RTR
+ -t 0.021935377 -s 0 -d 4 -p tcp -e 1540 -c 2 -a 0 -i 3 -k RTR 
- -t 0.021935377 -s 0 -d 4 -p tcp -e 1540 -c 2 -a 0 -i 3 -k RTR
h -t 0.021935377 -s 0 -d 4 -p tcp -e 1540 -c 2 -a 0 -i 3 -k RTR
+ -t 0.028722735 -s 6 -d -1 -p AODV -e 48 -c 2 -a 0 -i 0 -k RTR 
- -t 0.028722735 -s 6 -d -1 -p AODV -e 48 -c 2 -a 0 -i 0 -k RTR
h -t 0.028722735 -s 6 -d -1 -p AODV -e 48 -c 2 -a 0 -i 0 -k RTR
r -t 0.035919468 -s 4 -d 4 -p tcp -e 1540 -c 2 -a 0 -i 2 -k AGT
+ -t 0.035919468 -s 4 -d -1 -p ack -e 40 -c 2 -a 0 -i 4 -k AGT 
- -t 0.035919468 -s 4 -d -1 -p ack -e 40 -c 2 -a 0 -i 4 -k AGT
h -t 0.035919468 -s 4 -d -1 -p ack -e 40 -c 2 -a 0 -i 4 -k AGT
+ -t 0.035919468 -s 4 -d 0 -p ack -e 40 -c 2 -a 0 -i 4 -k RTR 
- -t 0.035919468 -s 4 -d 0 -p ack -e 40 -c 2 -a 0 -i 4 -k RTR
h -t 0.035919468 -s 4 -d 0 -p ack -e 40 -c 2 -a 0 -i 4 -k RTR
r -t 0.050063588 -s 4 -d 4 -p tcp -e 1540 -c 2 -a 0 -i 3 -k AGT
+ -t 0.050063588 -s 4 -d -1 -p ack -e 40 -c 2 -a 0 -i 5 -k AGT 
- -t 0.050063588 -s 4 -d -1 -p ack -e 40 -c 2 -a 0 -i 5 -k AGT
h -t 0.050063588 -s 4 -d -1 -p ack -e 40 -c 2 -a 0 -i 5 -k AGT
+ -t 0.050063588 -s 4 -d 0 -p ack -e 40 -c 2 -a 0 -i 5 -k RTR 
- -t 0.050063588 -s 4 -d 0 -p ack -e 40 -c 2 -a 0 -i 5 -k RTR
h -t 0.050063588 -s 4 -d 0 -p ack -e 40 -c 2 -a 0 -i 5 -k RTR
r -t 0.051907679 -s 0 -d 0 -p ack -e 40 -c 2 -a 0 -i 4 -k AGT
+ -t 0.051907679 -s 0 -d -1 -p tcp -e 1540 -c 2 -a 0 -i 6 -k AGT 
- -t 0.051907679 -s 0 -d -1 -p tcp -e 1540 -c 2 -a 0 -i 6 -k AGT
h -t 0.051907679 -s 0 -d -1 -p tcp -e 1540 -c 2 -a 0 -i 6 -k AGT
+ -t 0.051907679 -s 0 -d -1 -p tcp -e 1540 -c 2 -a 0 -i 7 -k AGT 
- -t 0.051907679 -s 0 -d -1 -p tcp -e 1540 -c 2 -a 0 -i 7 -k AGT
h -t 0.051907679 -s 0 -d -1 -p tcp -e 1540 -c 2 -a 0 -i 7 -k AGT
+ -t 0.051907679 -s 0 -d 4 -p tcp -e 1540 -c 2 -a 0 -i 6 -k RTR 
- -t 0.051907679 -s 0 -d 4 -p tcp -e 1540 -c 2 -a 0 -i 6 -k RTR
h -t 0.051907679 -s 0 -d 4 -p tcp -e 1540 -c 2 -a 0 -i 6 -k RTR
+ -t 0.051907679 -s 0 -d 4 -p tcp -e 1540 -c 2 -a 0 -i 7 -k RTR 
- -t 0.051907679 -s 0 -d 4 -p tcp -e 1540 -c 2 -a 0 -i 7 -k RTR
h -t 0.051907679 -s 0 -d 4 -p tcp -e 1540 -c 2 -a 0 -i 7 -k RTR
r -t 0.065931769 -s 4 -d 4 -p tcp -e 1540 -c 2 -a 0 -i 6 -k AGT
+ -t 0.065931769 -s 4 -d -1 -p ack -e 40 -c 2 -a 0 -i 8 -k AGT 
- -t 0.065931769 -s 4 -d -1 -p ack -e 40 -c 2 -a 0 -i 8 -k AGT
h -t 0.065931769 -s 4 -d -1 -p ack -e 40 -c 2 -a 0 -i 8 -k AGT
+ -t 0.065931769 -s 4 -d 0 -p ack -e 40 -c 2 -a 0 -i 8 -k RTR 
- -t 0.065931769 -s 4 -d 0 -p ack -e 40 -c 2 -a 0 -i 8 -k RTR
h -t 0.065931769 -s 4 -d 0 -p ack -e 40 -c 2 -a 0 -i 8 -k RTR
r -t 0.079775890 -s 4 -d 4 -p tcp -e 1540 -c 2 -a 0 -i 7 -k AGT
+ -t 0.079775890 -s 4 -d -1 -p ack -e 40 -c 2 -a 0 -i 9 -k AGT 
- -t 0.079775890 -s 4 -d -1 -p ack -e 40 -c 2 -a 0 -i 9 -k AGT
h -t 0.079775890 -s 4 -d -1 -p ack -e 40 -c 2 -a 0 -i 9 -k AGT
+ -t 0.079775890 -s 4 -d 0 -p ack -e 40 -c 2 -a 0 -i 9 -k RTR 
- -t 0.079775890 -s 4 -d 0 -p ack -e 40 -c 2 -a 0 -i 9 -k RTR
h -t 0.079775890 -s 4 -d 0 -p ack -e 40 -c 2 -a 0 -i 9 -k RTR
r -t 0.081619981 -s 0 -d 0 -p ack -e 40 -c 2 -a 0 -i 5 -k AGT
+ -t 0.081619981 -s 0 -d -1 -p tcp -e 1540 -c 2 -a 0 -i 10 -k AGT 
- -t 0.081619981 -s 0 -d -1 -p tcp -e 1540 -c 2 -a 0 -i 10 -k AGT
h -t 0.081619981 -s 0 -d -1 -p tcp -e 1540 -c 2 -a 0 -i 10 -k AGT
+ -t 0.081619981 -s 0 -d -1 -p tcp -e 1540 -c 2 -a 0 -i 11 -k AGT 
- -t 0.081619981 -s 0 -d -1 -p tcp -e 1540 -c 2 -a 0 -i 11 -k AGT
h -t 0.081619981 -s 0 -d -1 -p tcp -e 1540 -c 2 -a 0 -i 11 -k AGT
+ -t 0.081619981 -s 0 -d 4 -p tcp -e 1540 -c 2 -a 0 -i 10 -k RTR 
- -t 0.081619981 -s 0 -d 4 -p tcp -e 1540 -c 2 -a 0 -i 10 -k RTR
h -t 0.081619981 -s 0 -d 4 -p tcp -e 1540 -c 2 -a 0 -i 10 -k RTR
+ -t 0.081619981 -s 0 -d 4 -p tcp -e 1540 -c 2 -a 0 -i 11 -k RTR 
- -t 0.081619981 -s 0 -d 4 -p tcp -e 1540 -c 2 -a 0 -i 11 -k RTR
h -t 0.081619981 -s 0 -d 4 -p tcp -e 1540 -c 2 -a 0 -i 11 -k RTR
r -t 0.095664071 -s 4 -d 4 -p tcp -e 1540 -c 2 -a 0 -i 10 -k AGT
+ -t 0.095664071 -s 4 -d -1 -p ack -e 40 -c 2 -a 0 -i 12 -k AGT 
- -t 0.095664071 -s 4 -d -1 -p ack -e 40 -c 2 -a 0 -i 12 -k AGT
h -t 0.095664071 -s 4 -d -1 -p ack -e 40 -c 2 -a 0 -i 12 -k AGT
+ -t 0.095664071 -s 4 -d 0 -p ack -e 40 -c 2 -a 0 -i 12 -k RTR 
- -t 0.095664071 -s 4 -d 0 -p ack -e 40 -c 2 -a 0 -i 12 -k RTR
h -t 0.095664071 -s 4 -d 0 -p ack -e 40 -c 2 -a 0 -i 12 -k RTR
r -t 0.109668192 -s 4 -d 4 -p tcp -e 1540 -c 2 -a 0 -i 11 -k AGT
+ -t 0.109668192 -s 4 -d -1 -p ack -e 40 -c 2 -a 0 -i 13 -k AGT 
- -t 0.109668192 -s 4 -d -1 -p ack -e 40 -c 2 -a 0 -i 13 -k AGT
h -t 0.109668192 -s 4 -d -1 -p ack -e 40 -c 2 -a 0 -i 13 -k AGT
+ -t 0.109668192 -s 4 -d 0 -p ack -e 40 -c 2 -a 0 -i 13 -k RTR 
- -t 0.109668192 -s 4 -d 0 -p ack -e 40 -c 2 -a 0 -i 13 -k RTR
h -t 0.109668192 -s 4 -d 0 -p ack -e 40 -c 2 -a 0 -i 13 -k RTR
r -t 0.111532283 -s 0 -d 0 -p ack -e 40 -c 2 -a 0 -i 8 -k AGT
+ -t 0.111532283 -s 0 -d -1 -p tcp -e 1540 -c 2 -a 0 -i 14 -k AGT 
- -t 0.111532283 -s 0 -d -1 -p tcp -e 1540 -c 2 -a 0 -i 14 -k AGT
h -t 0.111532283 -s 0 -d -1 -p tcp -e 1540 -c 2 -a 0 -i 14 -k AGT
+ -t 0.111532283 -s 0 -d -1 -p tcp -e 1540 -c 2 -a 0 -i 15 -k AGT 
- -t 0.111532283 -s 0 -d -1 -p tcp -e 1540 -c 2 -a 0 -i 15 -k AGT
h -t 0.111532283 -s 0 -d -1 -p tcp -e 1540 -c 2 -a 0 -i 15 -k AGT
+ -t 0.111532283 -s 0 -d 4 -p tcp -e 1540 -c 2 -a 0 -i 14 -k RTR 
- -t 0.111532283 -s 0 -d 4 -p tcp -e 1540 -c 2 -a 0 -i 14 -k RTR
h -t 0.111532283 -s 0 -d 4 -p tcp -e 1540 -c 2 -a 0 -i 14 -k RTR
+ -t 0.111532283 -s 0 -d 4 -p tcp -e 1540 -c 2 -a 0 -i 15 -k RTR 
- -t 0.111532283 -s 0 -d 4 -p tcp -e 1540 -c 2 -a 0 -i 15 -k RTR
h -t 0.111532283 -s 0 -d 4 -p tcp -e 1540 -c 2 -a 0 -i 15 -k RTR
r -t 0.113756403 -s 0 -d 0 -p ack -e 40 -c 2 -a 0 -i 9 -k AGT
+ -t 0.113756403 -s 0 -d -1 -p tcp -e 1540 -c 2 -a 0 -i 16 -k AGT 
- -t 0.113756403 -s 0 -d -1 -p tcp -e 1540 -c 2 -a 0 -i 16 -k AGT
h -t 0.113756403 -s 0 -d -1 -p tcp -e 1540 -c 2 -a 0 -i 16 -k AGT
+ -t 0.113756403 -s 0 -d -1 -p tcp -e 1540 -c 2 -a 0 -i 17 -k AGT 
- -t 0.113756403 -s 0 -d -1 -p tcp -e 1540 -c 2 -a 0 -i 17 -k AGT
h -t 0.113756403 -s 0 -d -1 -p tcp -e 1540 -c 2 -a 0 -i 17 -k AGT
+ -t 0.113756403 -s 0 -d 4 -p tcp -e 1540 -c 2 -a 0 -i 16 -k RTR 
- -t 0.113756403 -s 0 -d 4 -p tcp -e 1540 -c 2 -a 0 -i 16 -k RTR
h -t 0.113756403 -s 0 -d 4 -p tcp -e 1540 -c 2 -a 0 -i 16 -k RTR
+ -t 0.113756403 -s 0 -d 4 -p tcp -e 1540 -c 2 -a 0 -i 17 -k RTR 
- -t 0.113756403 -s 0 -d 4 -p tcp -e 1540 -c 2 -a 0 -i 17 -k RTR
h -t 0.113756403 -s 0 -d 4 -p tcp -e 1540 -c 2 -a 0 -i 17 -k RTR
r -t 0.127720494 -s 4 -d 4 -p tcp -e 1540 -c 2 -a 0 -i 14 -k AGT
+ -t 0.127720494 -s 4 -d -1 -p ack -e 40 -c 2 -a 0 -i 18 -k AGT 
- -t 0.127720494 -s 4 -d -1 -p ack -e 40 -c 2 -a 0 -i 18 -k AGT
h -t 0.127720494 -s 4 -d -1 -p ack -e 40 -c 2 -a 0 -i 18 -k AGT
+ -t 0.127720494 -s 4 -d 0 -p ack -e 40 -c 2 -a 0 -i 18 -k RTR 
- -t 0.127720494 -s 4 -d 0 -p ack -e 40 -c 2 -a 0 -i 18 -k RTR
h -t 0.127720494 -s 4 -d 0 -p ack -e 40 -c 2 -a 0 -i 18 -k RTR
r -t 0.141904615 -s 4 -d 4 -p tcp -e 1540 -c 2 -a 0 -i 15 -k AGT
+ -t 0.141904615 -s 4 -d -1 -p ack -e 40 -c 2 -a 0 -i 19 -k AGT 
- -t 0.141904615 -s 4 -d -1 -p ack -e 40 -c 2 -a 0 -i 19 -k AGT
h -t 0.141904615 -s 4 -d -1 -p ack -e 40 -c 2 -a 0 -i 19 -k AGT
+ -t 0.141904615 -s 4 -d 0 -p ack -e 40 -c 2 -a 0 -i 19 -k RTR 
- -t 0.141904615 -s 4 -d 0 -p ack -e 40 -c 2 -a 0 -i 19 -k RTR
h -t 0.141904615 -s 4 -d 0 -p ack -e 40 -c 2 -a 0 -i 19 -k RTR
r -t 0.144244262 -s 5 -d -1 -p AODV -e 48 -c 2 -a 0 -i 0 -k RTR
r -t 0.144244455 -s 7 -d -1 -p AODV -e 48 -c 2 -a 0 -i 0 -k RTR
+ -t 0.148299645 -s 7 -d -1 -p AODV -e 48 -c 2 -a 0 -i 0 -k RTR 
- -t 0.148299645 -s 7 -d -1 -p AODV -e 48 -c 2 -a 0 -i 0 -k RTR
h -t 0.148299645 -s 7 -d -1 -p AODV -e 48 -c 2 -a 0 -i 0 -k RTR
r -t 0.158498711 -s 4 -d 4 -p tcp -e 1540 -c 2 -a 0 -i 16 -k AGT
+ -t 0.158498711 -s 4 -d -1 -p ack -e 40 -c 2 -a 0 -i 20 -k AGT 
- -t 0.158498711 -s 4 -d -1 -p ack -e 40 -c 2 -a 0 -i 20 -k AGT
h -t 0.158498711 -s 4 -d -1 -p ack -e 40 -c 2 -a 0 -i 20 -k AGT
+ -t 0.158498711 -s 4 -d 0 -p ack -e 40 -c 2 -a 0 -i 20 -k RTR 
- -t 0.158498711 -s 4 -d 0 -p ack -e 40 -c 2 -a 0 -i 20 -k RTR
h -t 0.158498711 -s 4 -d 0 -p ack -e 40 -c 2 -a 0 -i 20 -k RTR
r -t 0.172522832 -s 4 -d 4 -p tcp -e 1540 -c 2 -a 0 -i 17 -k AGT
+ -t 0.172522832 -s 4 -d -1 -p ack -e 40 -c 2 -a 0 -i 21 -k AGT 
- -t 0.172522832 -s 4 -d -1 -p ack -e 40 -c 2 -a 0 -i 21 -k AGT
h -t 0.172522832 -s 4 -d -1 -p ack -e 40 -c 2 -a 0 -i 21 -k AGT
+ -t 0.172522832 -s 4 -d 0 -p ack -e 40 -c 2 -a 0 -i 21 -k RTR 
- -t 0.172522832 -s 4 -d 0 -p ack -e 40 -c 2 -a 0 -i 21 -k RTR
h -t 0.172522832 -s 4 -d 0 -p ack -e 40 -c 2 -a 0 -i 21 -k RTR
r -t 0.174566923 -s 0 -d 0 -p ack -e 40 -c 2 -a 0 -i 12 -k AGT
+ -t 0.174566923 -s 0 -d -1 -p tcp -e 1540 -c 2 -a 0 -i 22 -k AGT 
- -t 0.174566923 -s 0 -d -1 -p tcp -e 1540 -c 2 -a 0 -i 22 -k AGT
h -t 0.174566923 -s 0 -d -1 -p tcp -e 1540 -c 2 -a 0 -i 22 -k AGT
+ -t 0.174566923 -s 0 -d -1 -p tcp -e 1540 -c 2 -a 0 -i 23 -k AGT 
- -t 0.174566923 -s 0 -d -1 -p tcp -e 1540 -c 2 -a 0 -i 23 -k AGT
h -t 0.174566923 -s 0 -d -1 -p tcp -e 1540 -c 2 -a 0 -i 23 -k AGT
+ -t 0.174566923 -s 0 -d 4 -p tcp -e 1540 -c 2 -a 0 -i 22 -k RTR 
- -t 0.174566923 -s 0 -d 4 -p tcp -e 1540 -c 2 -a 0 -i 22 -k RTR
h -t 0.174566923 -s 0 -d 4 -p tcp -e 1540 -c 2 -a 0 -i 22 -k RTR
+ -t 0.174566923 -s 0 -d 4 -p tcp -e 1540 -c 2 -a 0 -i 23 -k RTR 
- -t 0.174566923 -s 0 -d 4 -p tcp -e 1540 -c 2 -a 0 -i 23 -k RTR
h -t 0.174566923 -s 0 -d 4 -p tcp -e 1540 -c 2 -a 0 -i 23 -k RTR
r -t 0.176611043 -s 0 -d 0 -p ack -e 40 -c 2 -a 0 -i 13 -k AGT
+ -t 0.176611043 -s 0 -d -1 -p tcp -e 1540 -c 2 -a 0 -i 24 -k AGT 
- -t 0.176611043 -s 0 -d -1 -p tcp -e 1540 -c 2 -a 0 -i 24 -k AGT
h -t 0.176611043 -s 0 -d -1 -p tcp -e 1540 -c 2 -a 0 -i 24 -k AGT
+ -t 0.176611043 -s 0 -d -1 -p tcp -e 1540 -c 2 -a 0 -i 25 -k AGT 
- -t 0.176611043 -s 0 -d -1 -p tcp -e 1540 -c 2 -a 0 -i 25 -k AGT
h -t 0.176611043 -s 0 -d -1 -p tcp -e 1540 -c 2 -a 0 -i 25 -k AGT
+ -t 0.176611043 -s 0 -d 4 -p tcp -e 1540 -c 2 -a 0 -i 24 -k RTR 
- -t 0.176611043 -s 0 -d 4 -p tcp -e 1540 -c 2 -a 0 -i 24 -k RTR
h -t 0.176611043 -s 0 -d 4 -p tcp -e 1540 -c 2 -a 0 -i 24 -k RTR
+ -t 0.176611043 -s 0 -d 4 -p tcp -e 1540 -c 2 -a 0 -i 25 -k RTR 
- -t 0.176611043 -s 0 -d 4 -p tcp -e 1540 -c 2 -a 0 -i 25 -k RTR
h -t 0.176611043 -s 0 -d 4 -p tcp -e 1540 -c 2 -a 0 -i 25 -k RTR
r -t 0.178635164 -s 0 -d 0 -p ack -e 40 -c 2 -a 0 -i 18 -k AGT
+ -t 0.178635164 -s 0 -d -1 -p tcp -e 1540 -c 2 -a 0 -i 26 -k AGT 
- -t 0.178635164 -s 0 -d -1 -p tcp -e 1540 -c 2 -a 0 -i 26 -k AGT
h -t 0.178635164 -s 0 -d -1 -p tcp -e 1540 -c 2 -a 0 -i 26 -k AGT
+ -t 0.178635164 -s 0 -d -1 -p tcp -e 1540 -c 2 -a 0 -i 27 -k AGT 
- -t 0.178635164 -s 0 -d -1 -p tcp -e 1540 -c 2 -a 0 -i 27 -k AGT
h -t 0.178635164 -s 0 -d -1 -p tcp -e 1540 -c 2 -a 0 -i 27 -k AGT
+ -t 0.178635164 -s 0 -d 4 -p tcp -e 1540 -c 2 -a 0 -i 26 -k RTR 
- -t 0.178635164 -s 0 -d 4 -p tcp -e 1540 -c 2 -a 0 -i 26 -k RTR
h -t 0.178635164 -s 0 -d 4 -p tcp -e 1540 -c 2 -a 0 -i 26 -k RTR
+ -t 0.178635164 -s 0 -d 4 -p tcp -e 1540 -c 2 -a 0 -i 27 -k RTR 
- -t 0.178635164 -s 0 -d 4 -p tcp -e 1540 -c 2 -a 0 -i 27 -k RTR
h -t 0.178635164 -s 0 -d 4 -p tcp -e 1540 -c 2 -a 0 -i 27 -k RTR
r -t 0.192559255 -s 4 -d 4 -p tcp -e 1540 -c 2 -a 0 -i 22 -k AGT
+ -t 0.192559255 -s 4 -d -1 -p ack -e 40 -c 2 -a 0 -i 28 -k AGT 
- -t 0.192559255 -s 4 -d -1 -p ack -e 40 -c 2 -a 0 -i 28 -k AGT
h -t 0.192559255 -s 4 -d -1 -p ack -e 40 -c 2 -a 0 -i 28 -k AGT
+ -t 0.192559255 -s 4 -d 0 -p ack -e 40 -c 2 -a 0 -i 28 -k RTR 
- -t 0.192559255 -s 4 -d 0 -p ack -e 40 -c 2 -a 0 -i 28 -k RTR
h -t 0.192559255 -s 4 -d 0 -p ack -e 40 -c 2 -a 0 -i 28 -k RTR
r -t 0.206443375 -s 4 -d 4 -p tcp -e 1540 -c 2 -a 0 -i 23 -k AGT
+ -t 0.206443375 -s 4 -d -1 -p ack -e 40 -c 2 -a 0 -i 29 -k AGT 
- -t 0.206443375 -s 4 -d -1 -p ack -e 40 -c 2 -a 0 -i 29 -k AGT
h -t 0.206443375 -s 4 -d -1 -p ack -e 40 -c 2 -a 0 -i 29 -k AGT
+ -t 0.206443375 -s 4 -d 0 -p ack -e 40 -c 2 -a 0 -i 29 -k RTR 
- -t 0.206443375 -s 4 -d 0 -p ack -e 40 -c 2 -a 0 -i 29 -k RTR
h -t 0.206443375 -s 4 -d 0 -p ack -e 40 -c 2 -a 0 -i 29 -k RTR
r -t 0.220387496 -s 4 -d 4 -p tcp -e 1540 -c 2 -a 0 -i 24 -k AGT
+ -t 0.220387496 -s 4 -d -1 -p ack -e 40 -c 2 -a 0 -i 30 -k AGT 
- -t 0.220387496 -s 4 -d -1 -p ack -e 40 -c 2 -a 0 -i 30 -k AGT
h -t 0.220387496 -s 4 -d -1 -p ack -e 40 -c 2 -a 0 -i 30 -k AGT
+ -t 0.220387496 -s 4 -d 0 -p ack -e 40 -c 2 -a 0 -i 30 -k RTR 
- -t 0.220387496 -s 4 -d 0 -p ack -e 40 -c 2 -a 0 -i 30 -k RTR
h -t 0.220387496 -s 4 -d 0 -p ack -e 40 -c 2 -a 0 -i 30 -k RTR
r -t 0.222511587 -s 0 -d 0 -p ack -e 40 -c 2 -a 0 -i 19 -k AGT
+ -t 0.222511587 -s 0 -d -1 -p tcp -e 1540 -c 2 -a 0 -i 31 -k AGT 
- -t 0.222511587 -s 0 -d -1 -p tcp -e 1540 -c 2 -a 0 -i 31 -k AGT
h -t 0.222511587 -s 0 -d -1 -p tcp -e 1540 -c 2 -a 0 -i 31 -k AGT
+ -t 0.222511587 -s 0 -d -1 -p tcp -e 1540 -c 2 -a 0 -i 32 -k AGT 
- -t 0.222511587 -s 0 -d -1 -p tcp -e 1540 -c 2 -a 0 -i 32 -k AGT
h -t 0.222511587 -s 0 -d -1 -p tcp -e 1540 -c 2 -a 0 -i 32 -k AGT
+ -t 0.222511587 -s 0 -d 4 -p tcp -e 1540 -c 2 -a 0 -i 31 -k RTR 
- -t 0.222511587 -s 0 -d 4 -p tcp -e 1540 -c 2 -a 0 -i 31 -k RTR
h -t 0.222511587 -s 0 -d 4 -p tcp -e 1540 -c 2 -a 0 -i 31 -k RTR
+ -t 0.222511587 -s 0 -d 4 -p tcp -e 1540 -c 2 -a 0 -i 32 -k RTR 
- -t 0.222511587 -s 0 -d 4 -p tcp -e 1540 -c 2 -a 0 -i 32 -k RTR
h -t 0.222511587 -s 0 -d 4 -p tcp -e 1540 -c 2 -a 0 -i 32 -k RTR
r -t 0.236395677 -s 4 -d 4 -p tcp -e 1540 -c 2 -a 0 -i 25 -k AGT
+ -t 0.236395677 -s 4 -d -1 -p ack -e 40 -c 2 -a 0 -i 33 -k AGT 
- -t 0.236395677 -s 4 -d -1 -p ack -e 40 -c 2 -a 0 -i 33 -k AGT
h -t 0.236395677 -s 4 -d -1 -p ack -e 40 -c 2 -a 0 -i 33 -k AGT
+ -t 0.236395677 -s 4 -d 0 -p ack -e 40 -c 2 -a 0 -i 33 -k RTR 
- -t 0.236395677 -s 4 -d 0 -p ack -e 40 -c 2 -a 0 -i 33 -k RTR
h -t 0.236395677 -s 4 -d 0 -p ack -e 40 -c 2 -a 0 -i 33 -k RTR
r -t 0.250499798 -s 4 -d 4 -p tcp -e 1540 -c 2 -a 0 -i 26 -k AGT
+ -t 0.250499798 -s 4 -d -1 -p ack -e 40 -c 2 -a 0 -i 34 -k AGT 
- -t 0.250499798 -s 4 -d -1 -p ack -e 40 -c 2 -a 0 -i 34 -k AGT
h -t 0.250499798 -s 4 -d -1 -p ack -e 40 -c 2 -a 0 -i 34 -k AGT
+ -t 0.250499798 -s 4 -d 0 -p ack -e 40 -c 2 -a 0 -i 34 -k RTR 
- -t 0.250499798 -s 4 -d 0 -p ack -e 40 -c 2 -a 0 -i 34 -k RTR
h -t 0.250499798 -s 4 -d 0 -p ack -e 40 -c 2 -a 0 -i 34 -k RTR
r -t 0.252483888 -s 0 -d 0 -p ack -e 40 -c 2 -a 0 -i 20 -k AGT
+ -t 0.252483888 -s 0 -d -1 -p tcp -e 1540 -c 2 -a 0 -i 35 -k AGT 
- -t 0.252483888 -s 0 -d -1 -p tcp -e 1540 -c 2 -a 0 -i 35 -k AGT
h -t 0.252483888 -s 0 -d -1 -p tcp -e 1540 -c 2 -a 0 -i 35 -k AGT
+ -t 0.252483888 -s 0 -d -1 -p tcp -e 1540 -c 2 -a 0 -i 36 -k AGT 
- -t 0.252483888 -s 0 -d -1 -p tcp -e 1540 -c 2 -a 0 -i 36 -k AGT
h -t 0.252483888 -s 0 -d -1 -p tcp -e 1540 -c 2 -a 0 -i 36 -k AGT
+ -t 0.252483888 -s 0 -d 4 -p tcp -e 1540 -c 2 -a 0 -i 35 -k RTR 
- -t 0.252483888 -s 0 -d 4 -p tcp -e 1540 -c 2 -a 0 -i 35 -k RTR
h -t 0.252483888 -s 0 -d 4 -p tcp -e 1540 -c 2 -a 0 -i 35 -k RTR
+ -t 0.252483888 -s 0 -d 4 -p tcp -e 1540 -c 2 -a 0 -i 36 -k RTR 
- -t 0.252483888 -s 0 -d 4 -p tcp -e 1540 -c 2 -a 0 -i 36 -k RTR
h -t 0.252483888 -s 0 -d 4 -p tcp -e 1540 -c 2 -a 0 -i 36 -k RTR
r -t 0.266347979 -s 4 -d 4 -p tcp -e 1540 -c 2 -a 0 -i 27 -k AGT
+ -t 0.266347979 -s 4 -d -1 -p ack -e 40 -c 2 -a 0 -i 37 -k AGT 
- -t 0.266347979 -s 4 -d -1 -p ack -e 40 -c 2 -a 0 -i 37 -k AGT
h -t 0.266347979 -s 4 -d -1 -p ack -e 40 -c 2 -a 0 -i 37 -k AGT
+ -t 0.266347979 -s 4 -d 0 -p ack -e 40 -c 2 -a 0 -i 37 -k RTR 
- -t 0.266347979 -s 4 -d 0 -p ack -e 40 -c 2 -a 0 -i 37 -k RTR
h -t 0.266347979 -s 4 -d 0 -p ack -e 40 -c 2 -a 0 -i 37 -k RTR
r -t 0.268432070 -s 0 -d 0 -p ack -e 40 -c 2 -a 0 -i 21 -k AGT
+ -t 0.268432070 -s 0 -d -1 -p tcp -e 1540 -c 2 -a 0 -i 38 -k AGT 
- -t 0.268432070 -s 0 -d -1 -p tcp -e 1540 -c 2 -a 0 -i 38 -k AGT
h -t 0.268432070 -s 0 -d -1 -p tcp -e 1540 -c 2 -a 0 -i 38 -k AGT
+ -t 0.268432070 -s 0 -d -1 -p tcp -e 1540 -c 2 -a 0 -i 39 -k AGT 
- -t 0.268432070 -s 0 -d -1 -p tcp -e 1540 -c 2 -a 0 -i 39 -k AGT
h -t 0.268432070 -s 0 -d -1 -p tcp -e 1540 -c 2 -a 0 -i 39 -k AGT
+ -t 0.268432070 -s 0 -d 4 -p tcp -e 1540 -c 2 -a 0 -i 38 -k RTR 
- -t 0.268432070 -s 0 -d 4 -p tcp -e 1540 -c 2 -a 0 -i 38 -k RTR
h -t 0.268432070 -s 0 -d 4 -p tcp -e 1540 -c 2 -a 0 -i 38 -k RTR
+ -t 0.268432070 -s 0 -d 4 -p tcp -e 1540 -c 2 -a 0 -i 39 -k RTR 
- -t 0.268432070 -s 0 -d 4 -p tcp -e 1540 -c 2 -a 0 -i 39 -k RTR
h -t 0.268432070 -s 0 -d 4 -p tcp -e 1540 -c 2 -a 0 -i 39 -k RTR
r -t 0.270256190 -s 0 -d 0 -p ack -e 40 -c 2 -a 0 -i 28 -k AGT
+ -t 0.270256190 -s 0 -d -1 -p tcp -e 1540 -c 2 -a 0 -i 40 -k AGT 
- -t 0.270256190 -s 0 -d -1 -p tcp -e 1540 -c 2 -a 0 -i 40 -k AGT
h -t 0.270256190 -s 0 -d -1 -p tcp -e 1540 -c 2 -a 0 -i 40 -k AGT
+ -t 0.270256190 -s 0 -d -1 -p tcp -e 1540 -c 2 -a 0 -i 41 -k AGT 
- -t 0.270256190 -s 0 -d -1 -p tcp -e 1540 -c 2 -a 0 -i 41 -k AGT
h -t 0.270256190 -s 0 -d -1 -p tcp -e 1540 -c 2 -a 0 -i 41 -k AGT
+ -t 0.270256190 -s 0 -d 4 -p tcp -e 1540 -c 2 -a 0 -i 40 -k RTR 
- -t 0.270256190 -s 0 -d 4 -p tcp -e 1540 -c 2 -a 0 -i 40 -k RTR
h -t 0.270256190 -s 0 -d 4 -p tcp -e 1540 -c 2 -a 0 -i 40 -k RTR
+ -t 0.270256190 -s 0 -d 4 -p tcp -e 1540 -c 2 -a 0 -i 41 -k RTR 
- -t 0.270256190 -s 0 -d 4 -p tcp -e 1540 -c 2 -a 0 -i 41 -k RTR
h -t 0.270256190 -s 0 -d 4 -p tcp -e 1540 -c 2 -a 0 -i 41 -k RTR
r -t 0.272300311 -s 0 -d 0 -p ack -e 40 -c 2 -a 0 -i 29 -k AGT
+ -t 0.272300311 -s 0 -d -1 -p tcp -e 1540 -c 2 -a 0 -i 42 -k AGT 
- -t 0.272300311 -s 0 -d -1 -p tcp -e 1540 -c 2 -a 0 -i 42 -k AGT
h -t 0.272300311 -s 0 -d -1 -p tcp -e 1540 -c 2 -a 0 -i 42 -k AGT
+ -t 0.272300311 -s 0 -d -1 -p tcp -e 1540 -c 2 -a 0 -i 43 -k AGT 
- -t 0.272300311 -s 0 -d -1 -p tcp -e 1540 -c 2 -a 0 -i 43 -k AGT
h -t 0.272300311 -s 0 -d -1 -p tcp -e 1540 -c 2 -a 0 -i 43 -k AGT
+ -t 0.272300311 -s 0 -d 4 -p tcp -e 1540 -c 2 -a 0 -i 42 -k RTR 
- -t 0.272300311 -s 0 -d 4 -p tcp -e 1540 -c 2 -a 0 -i 42 -k RTR
h -t 0.272300311 -s 0 -d 4 -p tcp -e 1540 -c 2 -a 0 -i 42 -k RTR
+ -t 0.272300311 -s 0 -d 4 -p tcp -e 1540 -c 2 -a 0 -i 43 -k RTR 
- -t 0.272300311 -s 0 -d 4 -p tcp -e 1540 -c 2 -a 0 -i 43 -k RTR
h -t 0.272300311 -s 0 -d 4 -p tcp -e 1540 -c 2 -a 0 -i 43 -k RTR
r -t 0.286144402 -s 4 -d 4 -p tcp -e 1540 -c 2 -a 0 -i 31 -k AGT
+ -t 0.286144402 -s 4 -d -1 -p ack -e 40 -c 2 -a 0 -i 44 -k AGT 
- -t 0.286144402 -s 4 -d -1 -p ack -e 40 -c 2 -a 0 -i 44 -k AGT
h -t 0.286144402 -s 4 -d -1 -p ack -e 40 -c 2 -a 0 -i 44 -k AGT
+ -t 0.286144402 -s 4 -d 0 -p ack -e 40 -c 2 -a 0 -i 44 -k RTR 
- -t 0.286144402 -s 4 -d 0 -p ack -e 40 -c 2 -a 0 -i 44 -k RTR
h -t 0.286144402 -s 4 -d 0 -p ack -e 40 -c 2 -a 0 -i 44 -k RTR
r -t 0.300128522 -s 4 -d 4 -p tcp -e 1540 -c 2 -a 0 -i 32 -k AGT
+ -t 0.300128522 -s 4 -d -1 -p ack -e 40 -c 2 -a 0 -i 45 -k AGT 
- -t 0.300128522 -s 4 -d -1 -p ack -e 40 -c 2 -a 0 -i 45 -k AGT
h -t 0.300128522 -s 4 -d -1 -p ack -e 40 -c 2 -a 0 -i 45 -k AGT
+ -t 0.300128522 -s 4 -d 0 -p ack -e 40 -c 2 -a 0 -i 45 -k RTR 
- -t 0.300128522 -s 4 -d 0 -p ack -e 40 -c 2 -a 0 -i 45 -k RTR
h -t 0.300128522 -s 4 -d 0 -p ack -e 40 -c 2 -a 0 -i 45 -k RTR
r -t 0.302092613 -s 0 -d 0 -p ack -e 40 -c 2 -a 0 -i 30 -k AGT
+ -t 0.302092613 -s 0 -d -1 -p tcp -e 1540 -c 2 -a 0 -i 46 -k AGT 
- -t 0.302092613 -s 0 -d -1 -p tcp -e 1540 -c 2 -a 0 -i 46 -k AGT
h -t 0.302092613 -s 0 -d -1 -p tcp -e 1540 -c 2 -a 0 -i 46 -k AGT
+ -t 0.302092613 -s 0 -d -1 -p tcp -e 1540 -c 2 -a 0 -i 47 -k AGT 
- -t 0.302092613 -s 0 -d -1 -p tcp -e 1540 -c 2 -a 0 -i 47 -k AGT
h -t 0.302092613 -s 0 -d -1 -p tcp -e 1540 -c 2 -a 0 -i 47 -k AGT
+ -t 0.302092613 -s 0 -d 4 -p tcp -e 1540 -c 2 -a 0 -i 46 -k RTR 
- -t 0.302092613 -s 0 -d 4 -p tcp -e 1540 -c 2 -a 0 -i 46 -k RTR
h -t 0.302092613 -s 0 -d 4 -p tcp -e 1540 -c 2 -a 0 -i 46 -k RTR
+ -t 0.302092613 -s 0 -d 4 -p tcp -e 1540 -c 2 -a 0 -i 47 -k RTR 
- -t 0.302092613 -s 0 -d 4 -p tcp -e 1540 -c 2 -a 0 -i 47 -k RTR
h -t 0.302092613 -s 0 -d 4 -p tcp -e 1540 -c 2 -a 0 -i 47 -k RTR
r -t 0.304862734 -s 0 -d 0 -p ack -e 40 -c 2 -a 0 -i 33 -k AGT
+ -t 0.304862734 -s 0 -d -1 -p tcp -e 1540 -c 2 -a 0 -i 48 -k AGT 
- -t 0.304862734 -s 0 -d -1 -p tcp -e 1540 -c 2 -a 0 -i 48 -k AGT
h -t 0.304862734 -s 0 -d -1 -p tcp -e 1540 -c 2 -a 0 -i 48 -k AGT
+ -t 0.304862734 -s 0 -d -1 -p tcp -e 1540 -c 2 -a 0 -i 49 -k AGT 
- -t 0.304862734 -s 0 -d -1 -p tcp -e 1540 -c 2 -a 0 -i 49 -k AGT
h -t 0.304862734 -s 0 -d -1 -p tcp -e 1540 -c 2 -a 0 -i 49 -k AGT
+ -t 0.304862734 -s 0 -d 4 -p tcp -e 1540 -c 2 -a 0 -i 48 -k RTR 
- -t 0.304862734 -s 0 -d 4 -p tcp -e 1540 -c 2 -a 0 -i 48 -k RTR
h -t 0.304862734 -s 0 -d 4 -p tcp -e 1540 -c 2 -a 0 -i 48 -k RTR
+ -t 0.304862734 -s 0 -d 4 -p tcp -e 1540 -c 2 -a 0 -i 49 -k RTR 
- -t 0.304862734 -s 0 -d 4 -p tcp -e 1540 -c 2 -a 0 -i 49 -k RTR
h -t 0.304862734 -s 0 -d 4 -p tcp -e 1540 -c 2 -a 0 -i 49 -k RTR
r -t 0.306926854 -s 0 -d 0 -p ack -e 40 -c 2 -a 0 -i 34 -k AGT
+ -t 0.306926854 -s 0 -d -1 -p tcp -e 1540 -c 2 -a 0 -i 50 -k AGT 
- -t 0.306926854 -s 0 -d -1 -p tcp -e 1540 -c 2 -a 0 -i 50 -k AGT
h -t 0.306926854 -s 0 -d -1 -p tcp -e 1540 -c 2 -a 0 -i 50 -k AGT
+ -t 0.306926854 -s 0 -d -1 -p tcp -e 1540 -c 2 -a 0 -i 51 -k AGT 
- -t 0.306926854 -s 0 -d -1 -p tcp -e 1540 -c 2 -a 0 -i 51 -k AGT
h -t 0.306926854 -s 0 -d -1 -p tcp -e 1540 -c 2 -a 0 -i 51 -k AGT
+ -t 0.306926854 -s 0 -d 4 -p tcp -e 1540 -c 2 -a 0 -i 50 -k RTR 
- -t 0.306926854 -s 0 -d 4 -p tcp -e 1540 -c 2 -a 0 -i 50 -k RTR
h -t 0.306926854 -s 0 -d 4 -p tcp -e 1540 -c 2 -a 0 -i 50 -k RTR
+ -t 0.306926854 -s 0 -d 4 -p tcp -e 1540 -c 2 -a 0 -i 51 -k RTR 
- -t 0.306926854 -s 0 -d 4 -p tcp -e 1540 -c 2 -a 0 -i 51 -k RTR
h -t 0.306926854 -s 0 -d 4 -p tcp -e 1540 -c 2 -a 0 -i 51 -k RTR
r -t 0.320810945 -s 4 -d 4 -p tcp -e 1540 -c 2 -a 0 -i 35 -k AGT
+ -t 0.320810945 -s 4 -d -1 -p ack -e 40 -c 2 -a 0 -i 52 -k AGT 
- -t 0.320810945 -s 4 -d -1 -p ack -e 40 -c 2 -a 0 -i 52 -k AGT
h -t 0.320810945 -s 4 -d -1 -p ack -e 40 -c 2 -a 0 -i 52 -k AGT
+ -t 0.320810945 -s 4 -d 0 -p ack -e 40 -c 2 -a 0 -i 52 -k RTR 
- -t 0.320810945 -s 4 -d 0 -p ack -e 40 -c 2 -a 0 -i 52 -k RTR
h -t 0.320810945 -s 4 -d 0 -p ack -e 40 -c 2 -a 0 -i 52 -k RTR
r -t 0.322875035 -s 0 -d 0 -p ack -e 40 -c 2 -a 0 -i 37 -k AGT
+ -t 0.322875035 -s 0 -d -1 -p tcp -e 1540 -c 2 -a 0 -i 53 -k AGT 
- -t 0.322875035 -s 0 -d -1 -p tcp -e 1540 -c 2 -a 0 -i 53 -k AGT
h -t 0.322875035 -s 0 -d -1 -p tcp -e 1540 -c 2 -a 0 -i 53 -k AGT
+ -t 0.322875035 -s 0 -d -1 -p tcp -e 1540 -c 2 -a 0 -i 54 -k AGT 
- -t 0.322875035 -s 0 -d -1 -p tcp -e 1540 -c 2 -a 0 -i 54 -k AGT
h -t 0.322875035 -s 0 -d -1 -p tcp -e 1540 -c 2 -a 0 -i 54 -k AGT
+ -t 0.322875035 -s 0 -d 4 -p tcp -e 1540 -c 2 -a 0 -i 53 -k RTR 
- -t 0.322875035 -s 0 -d 4 -p tcp -e 1540 -c 2 -a 0 -i 53 -k RTR
h -t 0.322875035 -s 0 -d 4 -p tcp -e 1540 -c 2 -a 0 -i 53 -k RTR
+ -t 0.322875035 -s 0 -d 4 -p tcp -e 1540 -c 2 -a 0 -i 54 -k RTR 
- -t 0.322875035 -s 0 -d 4 -p tcp -e 1540 -c 2 -a 0 -i 54 -k RTR
h -t 0.322875035 -s 0 -d 4 -p tcp -e 1540 -c 2 -a 0 -i 54 -k RTR
r -t 0.324719156 -s 0 -d 0 -p ack -e 40 -c 2 -a 0 -i 44 -k AGT
+ -t 0.324719156 -s 0 -d -1 -p tcp -e 1540 -c 2 -a 0 -i 55 -k AGT 
- -t 0.324719156 -s 0 -d -1 -p tcp -e 1540 -c 2 -a 0 -i 55 -k AGT
h -t 0.324719156 -s 0 -d -1 -p tcp -e 1540 -c 2 -a 0 -i 55 -k AGT
+ -t 0.324719156 -s 0 -d -1 -p tcp -e 1540 -c 2 -a 0 -i 56 -k AGT 
- -t 0.324719156 -s 0 -d -1 -p tcp -e 1540 -c 2 -a 0 -i 56 -k AGT
h -t 0.324719156 -s 0 -d -1 -p tcp -e 1540 -c 2 -a 0 -i 56 -k AGT
+ -t 0.324719156 -s 0 -d 4 -p tcp -e 1540 -c 2 -a 0 -i 55 -k RTR 
- -t 0.324719156 -s 0 -d 4 -p tcp -e 1540 -c 2 -a 0 -i 55 -k RTR
h -t 0.324719156 -s 0 -d 4 -p tcp -e 1540 -c 2 -a 0 -i 55 -k RTR
+ -t 0.324719156 -s 0 -d 4 -p tcp -e 1540 -c 2 -a 0 -i 56 -k RTR 
- -t 0.324719156 -s 0 -d 4 -p tcp -e 1540 -c 2 -a 0 -i 56 -k RTR
h -t 0.324719156 -s 0 -d 4 -p tcp -e 1540 -c 2 -a 0 -i 56 -k RTR
r -t 0.338563247 -s 4 -d 4 -p tcp -e 1540 -c 2 -a 0 -i 36 -k AGT
+ -t 0.338563247 -s 4 -d -1 -p ack -e 40 -c 2 -a 0 -i 57 -k AGT 
- -t 0.338563247 -s 4 -d -1 -p ack -e 40 -c 2 -a 0 -i 57 -k AGT
h -t 0.338563247 -s 4 -d -1 -p ack -e 40 -c 2 -a 0 -i 57 -k AGT
+ -t 0.338563247 -s 4 -d 0 -p ack -e 40 -c 2 -a 0 -i 57 -k RTR 
- -t 0.338563247 -s 4 -d 0 -p ack -e 40 -c 2 -a 0 -i 57 -k RTR
h -t 0.338563247 -s 4 -d 0 -p ack -e 40 -c 2 -a 0 -i 57 -k RTR
r -t 0.352627368 -s 4 -d 4 -p tcp -e 1540 -c 2 -a 0 -i 38 -k AGT
+ -t 0.352627368 -s 4 -d -1 -p ack -e 40 -c 2 -a 0 -i 58 -k AGT 
- -t 0.352627368 -s 4 -d -1 -p ack -e 40 -c 2 -a 0 -i 58 -k AGT
h -t 0.352627368 -s 4 -d -1 -p ack -e 40 -c 2 -a 0 -i 58 -k AGT
+ -t 0.352627368 -s 4 -d 0 -p ack -e 40 -c 2 -a 0 -i 58 -k RTR 
- -t 0.352627368 -s 4 -d 0 -p ack -e 40 -c 2 -a 0 -i 58 -k RTR
h -t 0.352627368 -s 4 -d 0 -p ack -e 40 -c 2 -a 0 -i 58 -k RTR
r -t 0.366571488 -s 4 -d 4 -p tcp -e 1540 -c 2 -a 0 -i 39 -k AGT
+ -t 0.366571488 -s 4 -d -1 -p ack -e 40 -c 2 -a 0 -i 59 -k AGT 
- -t 0.366571488 -s 4 -d -1 -p ack -e 40 -c 2 -a 0 -i 59 -k AGT
h -t 0.366571488 -s 4 -d -1 -p ack -e 40 -c 2 -a 0 -i 59 -k AGT
+ -t 0.366571488 -s 4 -d 0 -p ack -e 40 -c 2 -a 0 -i 59 -k RTR 
- -t 0.366571488 -s 4 -d 0 -p ack -e 40 -c 2 -a 0 -i 59 -k RTR
h -t 0.366571488 -s 4 -d 0 -p ack -e 40 -c 2 -a 0 -i 59 -k RTR
r -t 0.368495579 -s 0 -d 0 -p ack -e 40 -c 2 -a 0 -i 45 -k AGT
+ -t 0.368495579 -s 0 -d -1 -p tcp -e 1540 -c 2 -a 0 -i 60 -k AGT 
- -t 0.368495579 -s 0 -d -1 -p tcp -e 1540 -c 2 -a 0 -i 60 -k AGT
h -t 0.368495579 -s 0 -d -1 -p tcp -e 1540 -c 2 -a 0 -i 60 -k AGT
+ -t 0.368495579 -s 0 -d -1 -p tcp -e 1540 -c 2 -a 0 -i 61 -k AGT 
- -t 0.368495579 -s 0 -d -1 -p tcp -e 1540 -c 2 -a 0 -i 61 -k AGT
h -t 0.368495579 -s 0 -d -1 -p tcp -e 1540 -c 2 -a 0 -i 61 -k AGT
+ -t 0.368495579 -s 0 -d 4 -p tcp -e 1540 -c 2 -a 0 -i 60 -k RTR 
- -t 0.368495579 -s 0 -d 4 -p tcp -e 1540 -c 2 -a 0 -i 60 -k RTR
h -t 0.368495579 -s 0 -d 4 -p tcp -e 1540 -c 2 -a 0 -i 60 -k RTR
+ -t 0.368495579 -s 0 -d 4 -p tcp -e 1540 -c 2 -a 0 -i 61 -k RTR 
- -t 0.368495579 -s 0 -d 4 -p tcp -e 1540 -c 2 -a 0 -i 61 -k RTR
h -t 0.368495579 -s 0 -d 4 -p tcp -e 1540 -c 2 -a 0 -i 61 -k RTR
r -t 0.370359700 -s 0 -d 0 -p ack -e 40 -c 2 -a 0 -i 52 -k AGT
+ -t 0.370359700 -s 0 -d -1 -p tcp -e 1540 -c 2 -a 0 -i 62 -k AGT 
- -t 0.370359700 -s 0 -d -1 -p tcp -e 1540 -c 2 -a 0 -i 62 -k AGT
h -t 0.370359700 -s 0 -d -1 -p tcp -e 1540 -c 2 -a 0 -i 62 -k AGT
+ -t 0.370359700 -s 0 -d 4 -p tcp -e 1540 -c 2 -a 0 -i 62 -k RTR 
- -t 0.370359700 -s 0 -d 4 -p tcp -e 1540 -c 2 -a 0 -i 62 -k RTR
h -t 0.370359700 -s 0 -d 4 -p tcp -e 1540 -c 2 -a 0 -i 62 -k RTR
r -t 0.384363790 -s 4 -d 4 -p tcp -e 1540 -c 2 -a 0 -i 40 -k AGT
+ -t 0.384363790 -s 4 -d -1 -p ack -e 40 -c 2 -a 0 -i 63 -k AGT 
- -t 0.384363790 -s 4 -d -1 -p ack -e 40 -c 2 -a 0 -i 63 -k AGT