n -t * -s 0  -x 797 -y 431 -Z 0 -z 25  -v circle -c black
n -t * -s 1  -x 401 -y 47 -Z 0 -z 25  -v circle -c black
n -t * -s 2  -x 291 -y 191 -Z 0 -z 25  -v circle -c black
n -t * -s 3  -x 683 -y 621 -Z 0 -z 25  -v circle -c black
n -t * -s 4  -x 846 -y 988 -Z 0 -z 25  -v circle -c black
n -t * -s 5  -x 978 -y 992 -Z 0 -z 25  -v circle -c black
n -t * -s 6  -x 787 -y 728 -Z 0 -z 25  -v circle -c black
n -t * -s 7  -x 506 -y 194 -Z 0 -z 25  -v circle -c black
n -t * -s 8  -x 586 -y 211 -Z 0 -z 25  -v circle -c black
n -t * -s 9  -x 620 -y 477 -Z 0 -z 25  -v circle -c black
n -t * -s 10  -x 204 -y 649 -Z 0 -z 25  -v circle -c black
n -t * -s 11  -x 686 -y 896 -Z 0 -z 25  -v circle -c black
n -t * -s 12  -x 509 -y 936 -Z 0 -z 25  -v circle -c black
n -t * -s 13  -x 900 -y 541 -Z 0 -z 25  -v circle -c black
n -t * -s 14  -x 819 -y 992 -Z 0 -z 25  -v circle -c black
V -t * -v 1.0a5 -a 0
W -t * -x 1000 -y 1000
A -t * -n 1 -p 0 -o 0x7fffffff -c 30 -a 1
A -t * -h 1 -m 1073741823 -s 0
n -t 1.000000 -s 0 -x 797.000000 -y 431.000000 -U -1.998960 -V 0.064483 -T 310.161248
n -t 1.000000 -s 1 -x 401.000000 -y 47.000000 -U 4.582550 -V 6.557456 -T 52.154368
n -t 1.000000 -s 2 -x 291.000000 -y 191.000000 -U 2.167926 -V 2.073668 -T 254.621287
n -t 1.000000 -s 3 -x 683.000000 -y 621.000000 -U 0.000000 -V -0.000000 -T 0.000000
n -t 1.000000 -s 4 -x 846.000000 -y 988.000000 -U -5.849374 -V -3.845103 -T 116.251750
n -t 1.000000 -s 5 -x 978.000000 -y 992.000000 -U -4.758769 -V -1.534313 -T 166.849873
n -t 1.000000 -s 6 -x 787.000000 -y 728.000000 -U -6.459639 -V -4.719435 -T 71.830638
n -t 1.000000 -s 7 -x 506.000000 -y 194.000000 -U -1.461085 -V 2.620158 -T 245.023355
n -t 1.000000 -s 8 -x 586.000000 -y 211.000000 -U -0.000000 -V -0.000000 -T 0.000000
n -t 1.000000 -s 9 -x 620.000000 -y 477.000000 -U -3.011143 -V -2.633062 -T 74.058254
n -t 1.000000 -s 10 -x 204.000000 -y 649.000000 -U 2.601833 -V -5.406521 -T 113.381607
n -t 1.000000 -s 11 -x 686.000000 -y 896.000000 -U -2.988334 -V 0.264311 -T 185.387582
n -t 1.000000 -s 12 -x 509.000000 -y 936.000000 -U -7.699302 -V -4.660553 -T 58.576741
n -t 1.000000 -s 13 -x 900.000000 -y 541.000000 -U -5.876200 -V -1.212549 -T 21.442429
n -t 1.000000 -s 14 -x 819.000000 -y 992.000000 -U 2.068838 -V -3.423435 -T 40.602494
+ -t 1.000000000 -s 0 -d -1 -p tcp -e 40 -c 2 -a 0 -i 0 -k AGT 
- -t 1.000000000 -s 0 -d -1 -p tcp -e 40 -c 2 -a 0 -i 0 -k AGT
h -t 1.000000000 -s 0 -d -1 -p tcp -e 40 -c 2 -a 0 -i 0 -k AGT
+ -t 1.000000000 -s 0 -d -1 -p AODV -e 48 -c 2 -a 0 -i 0 -k RTR 
- -t 1.000000000 -s 0 -d -1 -p AODV -e 48 -c 2 -a 0 -i 0 -k RTR
h -t 1.000000000 -s 0 -d -1 -p AODV -e 48 -c 2 -a 0 -i 0 -k RTR
r -t 1.000988502 -s 13 -d -1 -p AODV -e 48 -c 2 -a 0 -i 0 -k RTR
r -t 1.000988610 -s 9 -d -1 -p AODV -e 48 -c 2 -a 0 -i 0 -k RTR
r -t 1.000988739 -s 3 -d -1 -p AODV -e 48 -c 2 -a 0 -i 0 -k RTR
+ -t 1.001869729 -s 13 -d -1 -p AODV -e 48 -c 2 -a 0 -i 0 -k RTR 
- -t 1.001869729 -s 13 -d -1 -p AODV -e 48 -c 2 -a 0 -i 0 -k RTR
h -t 1.001869729 -s 13 -d -1 -p AODV -e 48 -c 2 -a 0 -i 0 -k RTR
r -t 1.002978231 -s 0 -d -1 -p AODV -e 48 -c 2 -a 0 -i 0 -k RTR
r -t 1.002978457 -s 6 -d -1 -p AODV -e 48 -c 2 -a 0 -i 0 -k RTR
r -t 1.002978500 -s 3 -d -1 -p AODV -e 48 -c 2 -a 0 -i 0 -k RTR
+ -t 1.005324475 -s 6 -d -1 -p AODV -e 48 -c 2 -a 0 -i 0 -k RTR 
- -t 1.005324475 -s 6 -d -1 -p AODV -e 48 -c 2 -a 0 -i 0 -k RTR
h -t 1.005324475 -s 6 -d -1 -p AODV -e 48 -c 2 -a 0 -i 0 -k RTR
+ -t 1.005400343 -s 9 -d -1 -p AODV -e 48 -c 2 -a 0 -i 0 -k RTR 
- -t 1.005400343 -s 9 -d -1 -p AODV -e 48 -c 2 -a 0 -i 0 -k RTR
h -t 1.005400343 -s 9 -d -1 -p AODV -e 48 -c 2 -a 0 -i 0 -k RTR
r -t 1.006608867 -s 3 -d -1 -p AODV -e 48 -c 2 -a 0 -i 0 -k RTR
r -t 1.006608953 -s 0 -d -1 -p AODV -e 48 -c 2 -a 0 -i 0 -k RTR
r -t 1.007911845 -s 3 -d -1 -p AODV -e 48 -c 2 -a 0 -i 0 -k RTR
r -t 1.007912002 -s 11 -d -1 -p AODV -e 48 -c 2 -a 0 -i 0 -k RTR
r -t 1.007912077 -s 13 -d -1 -p AODV -e 48 -c 2 -a 0 -i 0 -k RTR
+ -t 1.008339947 -s 11 -d -1 -p AODV -e 48 -c 2 -a 0 -i 0 -k RTR 
- -t 1.008339947 -s 11 -d -1 -p AODV -e 48 -c 2 -a 0 -i 0 -k RTR
h -t 1.008339947 -s 11 -d -1 -p AODV -e 48 -c 2 -a 0 -i 0 -k RTR
+ -t 1.008980293 -s 3 -d -1 -p AODV -e 48 -c 2 -a 0 -i 0 -k RTR 
- -t 1.008980293 -s 3 -d -1 -p AODV -e 48 -c 2 -a 0 -i 0 -k RTR
h -t 1.008980293 -s 3 -d -1 -p AODV -e 48 -c 2 -a 0 -i 0 -k RTR
r -t 1.009448494 -s 14 -d -1 -p AODV -e 48 -c 2 -a 0 -i 0 -k RTR
r -t 1.009448552 -s 12 -d -1 -p AODV -e 48 -c 2 -a 0 -i 0 -k RTR
r -t 1.009448562 -s 4 -d -1 -p AODV -e 48 -c 2 -a 0 -i 0 -k RTR
+ -t 1.009448562 -s 4 -d 11 -p AODV -e 44 -c 2 -a 0 -i 0 -k RTR 
- -t 1.009448562 -s 4 -d 11 -p AODV -e 44 -c 2 -a 0 -i 0 -k RTR
h -t 1.009448562 -s 4 -d 11 -p AODV -e 44 -c 2 -a 0 -i 0 -k RTR
r -t 1.009448601 -s 6 -d -1 -p AODV -e 48 -c 2 -a 0 -i 0 -k RTR
+ -t 1.011196605 -s 12 -d -1 -p AODV -e 48 -c 2 -a 0 -i 0 -k RTR 
- -t 1.011196605 -s 12 -d -1 -p AODV -e 48 -c 2 -a 0 -i 0 -k RTR
h -t 1.011196605 -s 12 -d -1 -p AODV -e 48 -c 2 -a 0 -i 0 -k RTR
+ -t 1.013685062 -s 14 -d -1 -p AODV -e 48 -c 2 -a 0 -i 0 -k RTR 
- -t 1.013685062 -s 14 -d -1 -p AODV -e 48 -c 2 -a 0 -i 0 -k RTR
h -t 1.013685062 -s 14 -d -1 -p AODV -e 48 -c 2 -a 0 -i 0 -k RTR
+ -t 1.014155868 -s 11 -d 6 -p AODV -e 44 -c 2 -a 0 -i 0 -k RTR 
- -t 1.014155868 -s 11 -d 6 -p AODV -e 44 -c 2 -a 0 -i 0 -k RTR
h -t 1.014155868 -s 11 -d 6 -p AODV -e 44 -c 2 -a 0 -i 0 -k RTR
r -t 1.015608505 -s 4 -d -1 -p AODV -e 48 -c 2 -a 0 -i 0 -k RTR
r -t 1.015608944 -s 5 -d -1 -p AODV -e 48 -c 2 -a 0 -i 0 -k RTR
r -t 1.015608961 -s 11 -d -1 -p AODV -e 48 -c 2 -a 0 -i 0 -k RTR
r -t 1.017486172 -s 11 -d -1 -p AODV -e 48 -c 2 -a 0 -i 0 -k RTR
+ -t 1.021764645 -s 6 -d 13 -p AODV -e 44 -c 2 -a 0 -i 0 -k RTR 
- -t 1.021764645 -s 6 -d 13 -p AODV -e 44 -c 2 -a 0 -i 0 -k RTR
h -t 1.021764645 -s 6 -d 13 -p AODV -e 44 -c 2 -a 0 -i 0 -k RTR
r -t 1.023795639 -s 6 -d -1 -p AODV -e 48 -c 2 -a 0 -i 0 -k RTR
r -t 1.023795666 -s 9 -d -1 -p AODV -e 48 -c 2 -a 0 -i 0 -k RTR
r -t 1.023795881 -s 0 -d -1 -p AODV -e 48 -c 2 -a 0 -i 0 -k RTR
r -t 1.023795913 -s 13 -d -1 -p AODV -e 48 -c 2 -a 0 -i 0 -k RTR
+ -t 1.024007196 -s 5 -d -1 -p AODV -e 48 -c 2 -a 0 -i 0 -k RTR 
- -t 1.024007196 -s 5 -d -1 -p AODV -e 48 -c 2 -a 0 -i 0 -k RTR
h -t 1.024007196 -s 5 -d -1 -p AODV -e 48 -c 2 -a 0 -i 0 -k RTR
r -t 1.027169624 -s 4 -d -1 -p AODV -e 48 -c 2 -a 0 -i 0 -k RTR
r -t 1.027169713 -s 14 -d -1 -p AODV -e 48 -c 2 -a 0 -i 0 -k RTR
+ -t 1.029138454 -s 13 -d 0 -p AODV -e 44 -c 2 -a 0 -i 0 -k RTR 
- -t 1.029138454 -s 13 -d 0 -p AODV -e 44 -c 2 -a 0 -i 0 -k RTR
h -t 1.029138454 -s 13 -d 0 -p AODV -e 44 -c 2 -a 0 -i 0 -k RTR
+ -t 1.034888967 -s 0 -d 13 -p tcp -e 40 -c 2 -a 0 -i 0 -k RTR 
- -t 1.034888967 -s 0 -d 13 -p tcp -e 40 -c 2 -a 0 -i 0 -k RTR
h -t 1.034888967 -s 0 -d 13 -p tcp -e 40 -c 2 -a 0 -i 0 -k RTR
+ -t 1.036894473 -s 13 -d 6 -p tcp -e 40 -c 2 -a 0 -i 0 -k RTR 
- -t 1.036894473 -s 13 -d 6 -p tcp -e 40 -c 2 -a 0 -i 0 -k RTR
h -t 1.036894473 -s 13 -d 6 -p tcp -e 40 -c 2 -a 0 -i 0 -k RTR
+ -t 1.038840657 -s 6 -d 11 -p tcp -e 40 -c 2 -a 0 -i 0 -k RTR 
- -t 1.038840657 -s 6 -d 11 -p tcp -e 40 -c 2 -a 0 -i 0 -k RTR
h -t 1.038840657 -s 6 -d 11 -p tcp -e 40 -c 2 -a 0 -i 0 -k RTR
+ -t 1.040666618 -s 11 -d 4 -p tcp -e 40 -c 2 -a 0 -i 0 -k RTR 
- -t 1.040666618 -s 11 -d 4 -p tcp -e 40 -c 2 -a 0 -i 0 -k RTR
h -t 1.040666618 -s 11 -d 4 -p tcp -e 40 -c 2 -a 0 -i 0 -k RTR
r -t 1.042812462 -s 4 -d 4 -p tcp -e 40 -c 2 -a 0 -i 0 -k AGT
+ -t 1.042812462 -s 4 -d -1 -p ack -e 40 -c 2 -a 0 -i 1 -k AGT 
- -t 1.042812462 -s 4 -d -1 -p ack -e 40 -c 2 -a 0 -i 1 -k AGT
h -t 1.042812462 -s 4 -d -1 -p ack -e 40 -c 2 -a 0 -i 1 -k AGT
+ -t 1.042812462 -s 4 -d 11 -p ack -e 40 -c 2 -a 0 -i 1 -k RTR 
- -t 1.042812462 -s 4 -d 11 -p ack -e 40 -c 2 -a 0 -i 1 -k RTR
h -t 1.042812462 -s 4 -d 11 -p ack -e 40 -c 2 -a 0 -i 1 -k RTR
+ -t 1.044858306 -s 11 -d 6 -p ack -e 40 -c 2 -a 0 -i 1 -k RTR 
- -t 1.044858306 -s 11 -d 6 -p ack -e 40 -c 2 -a 0 -i 1 -k RTR
h -t 1.044858306 -s 11 -d 6 -p ack -e 40 -c 2 -a 0 -i 1 -k RTR
+ -t 1.046984267 -s 6 -d 13 -p ack -e 40 -c 2 -a 0 -i 1 -k RTR 
- -t 1.046984267 -s 6 -d 13 -p ack -e 40 -c 2 -a 0 -i 1 -k RTR
h -t 1.046984267 -s 6 -d 13 -p ack -e 40 -c 2 -a 0 -i 1 -k RTR
+ -t 1.049050451 -s 13 -d 0 -p ack -e 40 -c 2 -a 0 -i 1 -k RTR 
- -t 1.049050451 -s 13 -d 0 -p ack -e 40 -c 2 -a 0 -i 1 -k RTR
h -t 1.049050451 -s 13 -d 0 -p ack -e 40 -c 2 -a 0 -i 1 -k RTR
r -t 1.050915956 -s 0 -d 0 -p ack -e 40 -c 2 -a 0 -i 1 -k AGT
+ -t 1.050915956 -s 0 -d -1 -p tcp -e 1540 -c 2 -a 0 -i 2 -k AGT 
- -t 1.050915956 -s 0 -d -1 -p tcp -e 1540 -c 2 -a 0 -i 2 -k AGT
h -t 1.050915956 -s 0 -d -1 -p tcp -e 1540 -c 2 -a 0 -i 2 -k AGT
+ -t 1.050915956 -s 0 -d -1 -p tcp -e 1540 -c 2 -a 0 -i 3 -k AGT 
- -t 1.050915956 -s 0 -d -1 -p tcp -e 1540 -c 2 -a 0 -i 3 -k AGT
h -t 1.050915956 -s 0 -d -1 -p tcp -e 1540 -c 2 -a 0 -i 3 -k AGT
+ -t 1.050915956 -s 0 -d 13 -p tcp -e 1540 -c 2 -a 0 -i 2 -k RTR 
- -t 1.050915956 -s 0 -d 13 -p tcp -e 1540 -c 2 -a 0 -i 2 -k RTR
h -t 1.050915956 -s 0 -d 13 -p tcp -e 1540 -c 2 -a 0 -i 2 -k RTR
+ -t 1.050915956 -s 0 -d 13 -p tcp -e 1540 -c 2 -a 0 -i 3 -k RTR 
- -t 1.050915956 -s 0 -d 13 -p tcp -e 1540 -c 2 -a 0 -i 3 -k RTR
h -t 1.050915956 -s 0 -d 13 -p tcp -e 1540 -c 2 -a 0 -i 3 -k RTR
+ -t 1.064761461 -s 13 -d 6 -p tcp -e 1540 -c 2 -a 0 -i 2 -k RTR 
- -t 1.064761461 -s 13 -d 6 -p tcp -e 1540 -c 2 -a 0 -i 2 -k RTR
h -t 1.064761461 -s 13 -d 6 -p tcp -e 1540 -c 2 -a 0 -i 2 -k RTR
+ -t 1.078827467 -s 13 -d 6 -p tcp -e 1540 -c 2 -a 0 -i 3 -k RTR 
- -t 1.078827467 -s 13 -d 6 -p tcp -e 1540 -c 2 -a 0 -i 3 -k RTR
h -t 1.078827467 -s 13 -d 6 -p tcp -e 1540 -c 2 -a 0 -i 3 -k RTR
+ -t 1.092893650 -s 6 -d 11 -p tcp -e 1540 -c 2 -a 0 -i 2 -k RTR 
- -t 1.092893650 -s 6 -d 11 -p tcp -e 1540 -c 2 -a 0 -i 2 -k RTR
h -t 1.092893650 -s 6 -d 11 -p tcp -e 1540 -c 2 -a 0 -i 2 -k RTR
+ -t 1.106760560 -s 6 -d 11 -p tcp -e 1540 -c 2 -a 0 -i 3 -k RTR 
- -t 1.106760560 -s 6 -d 11 -p tcp -e 1540 -c 2 -a 0 -i 3 -k RTR
h -t 1.106760560 -s 6 -d 11 -p tcp -e 1540 -c 2 -a 0 -i 3 -k RTR
+ -t 1.120846523 -s 11 -d 4 -p tcp -e 1540 -c 2 -a 0 -i 2 -k RTR 
- -t 1.120846523 -s 11 -d 4 -p tcp -e 1540 -c 2 -a 0 -i 2 -k RTR
h -t 1.120846523 -s 11 -d 4 -p tcp -e 1540 -c 2 -a 0 -i 2 -k RTR
r -t 1.134792363 -s 4 -d 4 -p tcp -e 1540 -c 2 -a 0 -i 2 -k AGT
+ -t 1.134792363 -s 4 -d -1 -p ack -e 40 -c 2 -a 0 -i 4 -k AGT 
- -t 1.134792363 -s 4 -d -1 -p ack -e 40 -c 2 -a 0 -i 4 -k AGT
h -t 1.134792363 -s 4 -d -1 -p ack -e 40 -c 2 -a 0 -i 4 -k AGT
+ -t 1.134792363 -s 4 -d 11 -p ack -e 40 -c 2 -a 0 -i 4 -k RTR 
- -t 1.134792363 -s 4 -d 11 -p ack -e 40 -c 2 -a 0 -i 4 -k RTR
h -t 1.134792363 -s 4 -d 11 -p ack -e 40 -c 2 -a 0 -i 4 -k RTR
+ -t 1.136718202 -s 11 -d 6 -p ack -e 40 -c 2 -a 0 -i 4 -k RTR 
- -t 1.136718202 -s 11 -d 6 -p ack -e 40 -c 2 -a 0 -i 4 -k RTR
h -t 1.136718202 -s 11 -d 6 -p ack -e 40 -c 2 -a 0 -i 4 -k RTR
+ -t 1.150674442 -s 11 -d 4 -p tcp -e 1540 -c 2 -a 0 -i 3 -k RTR 
- -t 1.150674442 -s 11 -d 4 -p tcp -e 1540 -c 2 -a 0 -i 3 -k RTR
h -t 1.150674442 -s 11 -d 4 -p tcp -e 1540 -c 2 -a 0 -i 3 -k RTR
+ -t 1.152640406 -s 6 -d 13 -p ack -e 40 -c 2 -a 0 -i 4 -k RTR 
- -t 1.152640406 -s 6 -d 13 -p ack -e 40 -c 2 -a 0 -i 4 -k RTR
h -t 1.152640406 -s 6 -d 13 -p ack -e 40 -c 2 -a 0 -i 4 -k RTR
+ -t 1.154806587 -s 13 -d 0 -p ack -e 40 -c 2 -a 0 -i 4 -k RTR 
- -t 1.154806587 -s 13 -d 0 -p ack -e 40 -c 2 -a 0 -i 4 -k RTR
h -t 1.154806587 -s 13 -d 0 -p ack -e 40 -c 2 -a 0 -i 4 -k RTR
r -t 1.156752088 -s 0 -d 0 -p ack -e 40 -c 2 -a 0 -i 4 -k AGT
+ -t 1.156752088 -s 0 -d -1 -p tcp -e 1540 -c 2 -a 0 -i 5 -k AGT 
- -t 1.156752088 -s 0 -d -1 -p tcp -e 1540 -c 2 -a 0 -i 5 -k AGT
h -t 1.156752088 -s 0 -d -1 -p tcp -e 1540 -c 2 -a 0 -i 5 -k AGT
+ -t 1.156752088 -s 0 -d -1 -p tcp -e 1540 -c 2 -a 0 -i 6 -k AGT 
- -t 1.156752088 -s 0 -d -1 -p tcp -e 1540 -c 2 -a 0 -i 6 -k AGT
h -t 1.156752088 -s 0 -d -1 -p tcp -e 1540 -c 2 -a 0 -i 6 -k AGT
+ -t 1.156752088 -s 0 -d 13 -p tcp -e 1540 -c 2 -a 0 -i 5 -k RTR 
- -t 1.156752088 -s 0 -d 13 -p tcp -e 1540 -c 2 -a 0 -i 5 -k RTR
h -t 1.156752088 -s 0 -d 13 -p tcp -e 1540 -c 2 -a 0 -i 5 -k RTR
+ -t 1.156752088 -s 0 -d 13 -p tcp -e 1540 -c 2 -a 0 -i 6 -k RTR 
- -t 1.156752088 -s 0 -d 13 -p tcp -e 1540 -c 2 -a 0 -i 6 -k RTR
h -t 1.156752088 -s 0 -d 13 -p tcp -e 1540 -c 2 -a 0 -i 6 -k RTR
+ -t 1.171157589 -s 13 -d 6 -p tcp -e 1540 -c 2 -a 0 -i 5 -k RTR 
- -t 1.171157589 -s 13 -d 6 -p tcp -e 1540 -c 2 -a 0 -i 5 -k RTR
h -t 1.171157589 -s 13 -d 6 -p tcp -e 1540 -c 2 -a 0 -i 5 -k RTR
r -t 1.185408809 -s 4 -d 4 -p tcp -e 1540 -c 2 -a 0 -i 3 -k AGT
+ -t 1.185408809 -s 4 -d -1 -p ack -e 40 -c 2 -a 0 -i 7 -k AGT 
- -t 1.185408809 -s 4 -d -1 -p ack -e 40 -c 2 -a 0 -i 7 -k AGT
h -t 1.185408809 -s 4 -d -1 -p ack -e 40 -c 2 -a 0 -i 7 -k AGT
+ -t 1.185408809 -s 4 -d 11 -p ack -e 40 -c 2 -a 0 -i 7 -k RTR 
- -t 1.185408809 -s 4 -d 11 -p ack -e 40 -c 2 -a 0 -i 7 -k RTR
h -t 1.185408809 -s 4 -d 11 -p ack -e 40 -c 2 -a 0 -i 7 -k RTR
+ -t 1.199305290 -s 13 -d 6 -p tcp -e 1540 -c 2 -a 0 -i 6 -k RTR 
- -t 1.199305290 -s 13 -d 6 -p tcp -e 1540 -c 2 -a 0 -i 6 -k RTR
h -t 1.199305290 -s 13 -d 6 -p tcp -e 1540 -c 2 -a 0 -i 6 -k RTR
+ -t 1.213311470 -s 6 -d 11 -p tcp -e 1540 -c 2 -a 0 -i 5 -k RTR 
- -t 1.213311470 -s 6 -d 11 -p tcp -e 1540 -c 2 -a 0 -i 5 -k RTR
h -t 1.213311470 -s 6 -d 11 -p tcp -e 1540 -c 2 -a 0 -i 5 -k RTR
+ -t 1.227318375 -s 6 -d 11 -p tcp -e 1540 -c 2 -a 0 -i 6 -k RTR 
- -t 1.227318375 -s 6 -d 11 -p tcp -e 1540 -c 2 -a 0 -i 6 -k RTR
h -t 1.227318375 -s 6 -d 11 -p tcp -e 1540 -c 2 -a 0 -i 6 -k RTR
+ -t 1.241184341 -s 11 -d 4 -p tcp -e 1540 -c 2 -a 0 -i 5 -k RTR 
- -t 1.241184341 -s 11 -d 4 -p tcp -e 1540 -c 2 -a 0 -i 5 -k RTR
h -t 1.241184341 -s 11 -d 4 -p tcp -e 1540 -c 2 -a 0 -i 5 -k RTR
r -t 1.255130176 -s 4 -d 4 -p tcp -e 1540 -c 2 -a 0 -i 5 -k AGT
+ -t 1.255130176 -s 4 -d -1 -p ack -e 40 -c 2 -a 0 -i 8 -k AGT 
- -t 1.255130176 -s 4 -d -1 -p ack -e 40 -c 2 -a 0 -i 8 -k AGT
h -t 1.255130176 -s 4 -d -1 -p ack -e 40 -c 2 -a 0 -i 8 -k AGT
+ -t 1.255130176 -s 4 -d 11 -p ack -e 40 -c 2 -a 0 -i 8 -k RTR 
- -t 1.255130176 -s 4 -d 11 -p ack -e 40 -c 2 -a 0 -i 8 -k RTR
h -t 1.255130176 -s 4 -d 11 -p ack -e 40 -c 2 -a 0 -i 8 -k RTR
+ -t 1.269641032 -s 11 -d 4 -p tcp -e 1540 -c 2 -a 0 -i 6 -k RTR 
- -t 1.269641032 -s 11 -d 4 -p tcp -e 1540 -c 2 -a 0 -i 6 -k RTR
h -t 1.269641032 -s 11 -d 4 -p tcp -e 1540 -c 2 -a 0 -i 6 -k RTR
r -t 1.283586865 -s 4 -d 4 -p tcp -e 1540 -c 2 -a 0 -i 6 -k AGT
+ -t 1.283586865 -s 4 -d -1 -p ack -e 40 -c 2 -a 0 -i 9 -k AGT 
- -t 1.283586865 -s 4 -d -1 -p ack -e 40 -c 2 -a 0 -i 9 -k AGT
h -t 1.283586865 -s 4 -d -1 -p ack -e 40 -c 2 -a 0 -i 9 -k AGT
+ -t 1.283586865 -s 4 -d 11 -p ack -e 40 -c 2 -a 0 -i 9 -k RTR 
- -t 1.283586865 -s 4 -d 11 -p ack -e 40 -c 2 -a 0 -i 9 -k RTR
h -t 1.283586865 -s 4 -d 11 -p ack -e 40 -c 2 -a 0 -i 9 -k RTR
+ -t 1.286772698 -s 11 -d 6 -p ack -e 40 -c 2 -a 0 -i 7 -k RTR 
- -t 1.286772698 -s 11 -d 6 -p ack -e 40 -c 2 -a 0 -i 7 -k RTR
h -t 1.286772698 -s 11 -d 6 -p ack -e 40 -c 2 -a 0 -i 7 -k RTR
+ -t 1.288598666 -s 6 -d 13 -p ack -e 40 -c 2 -a 0 -i 7 -k RTR 
- -t 1.288598666 -s 6 -d 13 -p ack -e 40 -c 2 -a 0 -i 7 -k RTR
h -t 1.288598666 -s 6 -d 13 -p ack -e 40 -c 2 -a 0 -i 7 -k RTR
+ -t 1.290784843 -s 13 -d 0 -p ack -e 40 -c 2 -a 0 -i 7 -k RTR 
- -t 1.290784843 -s 13 -d 0 -p ack -e 40 -c 2 -a 0 -i 7 -k RTR
h -t 1.290784843 -s 13 -d 0 -p ack -e 40 -c 2 -a 0 -i 7 -k RTR
r -t 1.293030339 -s 0 -d 0 -p ack -e 40 -c 2 -a 0 -i 7 -k AGT
+ -t 1.293030339 -s 0 -d -1 -p tcp -e 1540 -c 2 -a 0 -i 10 -k AGT 
- -t 1.293030339 -s 0 -d -1 -p tcp -e 1540 -c 2 -a 0 -i 10 -k AGT
h -t 1.293030339 -s 0 -d -1 -p tcp -e 1540 -c 2 -a 0 -i 10 -k AGT
+ -t 1.293030339 -s 0 -d -1 -p tcp -e 1540 -c 2 -a 0 -i 11 -k AGT 
- -t 1.293030339 -s 0 -d -1 -p tcp -e 1540 -c 2 -a 0 -i 11 -k AGT
h -t 1.293030339 -s 0 -d -1 -p tcp -e 1540 -c 2 -a 0 -i 11 -k AGT
+ -t 1.293030339 -s 0 -d 13 -p tcp -e 1540 -c 2 -a 0 -i 10 -k RTR 
- -t 1.293030339 -s 0 -d 13 -p tcp -e 1540 -c 2 -a 0 -i 10 -k RTR
h -t 1.293030339 -s 0 -d 13 -p tcp -e 1540 -c 2 -a 0 -i 10 -k RTR
+ -t 1.293030339 -s 0 -d 13 -p tcp -e 1540 -c 2 -a 0 -i 11 -k RTR 
- -t 1.293030339 -s 0 -d 13 -p tcp -e 1540 -c 2 -a 0 -i 11 -k RTR
h -t 1.293030339 -s 0 -d 13 -p tcp -e 1540 -c 2 -a 0 -i 11 -k RTR
+ -t 1.296287171 -s 11 -d 6 -p ack -e 40 -c 2 -a 0 -i 8 -k RTR 
- -t 1.296287171 -s 11 -d 6 -p ack -e 40 -c 2 -a 0 -i 8 -k RTR
h -t 1.296287171 -s 11 -d 6 -p ack -e 40 -c 2 -a 0 -i 8 -k RTR
+ -t 1.298113614 -s 11 -d 6 -p ack -e 40 -c 2 -a 0 -i 9 -k RTR 
- -t 1.298113614 -s 11 -d 6 -p ack -e 40 -c 2 -a 0 -i 9 -k RTR
h -t 1.298113614 -s 11 -d 6 -p ack -e 40 -c 2 -a 0 -i 9 -k RTR
+ -t 1.300039582 -s 6 -d 13 -p ack -e 40 -c 2 -a 0 -i 8 -k RTR 
- -t 1.300039582 -s 6 -d 13 -p ack -e 40 -c 2 -a 0 -i 8 -k RTR
h -t 1.300039582 -s 6 -d 13 -p ack -e 40 -c 2 -a 0 -i 8 -k RTR
+ -t 1.302286205 -s 6 -d 13 -p ack -e 40 -c 2 -a 0 -i 9 -k RTR 
- -t 1.302286205 -s 6 -d 13 -p ack -e 40 -c 2 -a 0 -i 9 -k RTR
h -t 1.302286205 -s 6 -d 13 -p ack -e 40 -c 2 -a 0 -i 9 -k RTR
+ -t 1.304292382 -s 13 -d 0 -p ack -e 40 -c 2 -a 0 -i 8 -k RTR 
- -t 1.304292382 -s 13 -d 0 -p ack -e 40 -c 2 -a 0 -i 8 -k RTR
h -t 1.304292382 -s 13 -d 0 -p ack -e 40 -c 2 -a 0 -i 8 -k RTR
r -t 1.306137878 -s 0 -d 0 -p ack -e 40 -c 2 -a 0 -i 8 -k AGT
+ -t 1.306137878 -s 0 -d -1 -p tcp -e 1540 -c 2 -a 0 -i 12 -k AGT 
- -t 1.306137878 -s 0 -d -1 -p tcp -e 1540 -c 2 -a 0 -i 12 -k AGT
h -t 1.306137878 -s 0 -d -1 -p tcp -e 1540 -c 2 -a 0 -i 12 -k AGT
+ -t 1.306137878 -s 0 -d -1 -p tcp -e 1540 -c 2 -a 0 -i 13 -k AGT 
- -t 1.306137878 -s 0 -d -1 -p tcp -e 1540 -c 2 -a 0 -i 13 -k AGT
h -t 1.306137878 -s 0 -d -1 -p tcp -e 1540 -c 2 -a 0 -i 13 -k AGT
+ -t 1.306137878 -s 0 -d 13 -p tcp -e 1540 -c 2 -a 0 -i 12 -k RTR 
- -t 1.306137878 -s 0 -d 13 -p tcp -e 1540 -c 2 -a 0 -i 12 -k RTR
h -t 1.306137878 -s 0 -d 13 -p tcp -e 1540 -c 2 -a 0 -i 12 -k RTR
+ -t 1.306137878 -s 0 -d 13 -p tcp -e 1540 -c 2 -a 0 -i 13 -k RTR 
- -t 1.306137878 -s 0 -d 13 -p tcp -e 1540 -c 2 -a 0 -i 13 -k RTR
h -t 1.306137878 -s 0 -d 13 -p tcp -e 1540 -c 2 -a 0 -i 13 -k RTR
+ -t 1.308389040 -s 13 -d 0 -p ack -e 40 -c 2 -a 0 -i 9 -k RTR 
- -t 1.308389040 -s 13 -d 0 -p ack -e 40 -c 2 -a 0 -i 9 -k RTR
h -t 1.308389040 -s 13 -d 0 -p ack -e 40 -c 2 -a 0 -i 9 -k RTR
r -t 1.310234536 -s 0 -d 0 -p ack -e 40 -c 2 -a 0 -i 9 -k AGT
+ -t 1.310234536 -s 0 -d -1 -p tcp -e 1540 -c 2 -a 0 -i 14 -k AGT 
- -t 1.310234536 -s 0 -d -1 -p tcp -e 1540 -c 2 -a 0 -i 14 -k AGT
h -t 1.310234536 -s 0 -d -1 -p tcp -e 1540 -c 2 -a 0 -i 14 -k AGT
+ -t 1.310234536 -s 0 -d -1 -p tcp -e 1540 -c 2 -a 0 -i 15 -k AGT 
- -t 1.310234536 -s 0 -d -1 -p tcp -e 1540 -c 2 -a 0 -i 15 -k AGT
h -t 1.310234536 -s 0 -d -1 -p tcp -e 1540 -c 2 -a 0 -i 15 -k AGT
+ -t 1.310234536 -s 0 -d 13 -p tcp -e 1540 -c 2 -a 0 -i 14 -k RTR 
- -t 1.310234536 -s 0 -d 13 -p tcp -e 1540 -c 2 -a 0 -i 14 -k RTR
h -t 1.310234536 -s 0 -d 13 -p tcp -e 1540 -c 2 -a 0 -i 14 -k RTR
+ -t 1.310234536 -s 0 -d 13 -p tcp -e 1540 -c 2 -a 0 -i 15 -k RTR 
- -t 1.310234536 -s 0 -d 13 -p tcp -e 1540 -c 2 -a 0 -i 15 -k RTR
h -t 1.310234536 -s 0 -d 13 -p tcp -e 1540 -c 2 -a 0 -i 15 -k RTR
+ -t 1.324200032 -s 13 -d 6 -p tcp -e 1540 -c 2 -a 0 -i 10 -k RTR 
- -t 1.324200032 -s 13 -d 6 -p tcp -e 1540 -c 2 -a 0 -i 10 -k RTR
h -t 1.324200032 -s 13 -d 6 -p tcp -e 1540 -c 2 -a 0 -i 10 -k RTR
+ -t 1.338286208 -s 6 -d 11 -p tcp -e 1540 -c 2 -a 0 -i 10 -k RTR 
- -t 1.338286208 -s 6 -d 11 -p tcp -e 1540 -c 2 -a 0 -i 10 -k RTR
h -t 1.338286208 -s 6 -d 11 -p tcp -e 1540 -c 2 -a 0 -i 10 -k RTR
+ -t 1.352492177 -s 11 -d 4 -p tcp -e 1540 -c 2 -a 0 -i 10 -k RTR 
- -t 1.352492177 -s 11 -d 4 -p tcp -e 1540 -c 2 -a 0 -i 10 -k RTR
h -t 1.352492177 -s 11 -d 4 -p tcp -e 1540 -c 2 -a 0 -i 10 -k RTR
r -t 1.366638007 -s 4 -d 4 -p tcp -e 1540 -c 2 -a 0 -i 10 -k AGT
+ -t 1.366638007 -s 4 -d -1 -p ack -e 40 -c 2 -a 0 -i 16 -k AGT 
- -t 1.366638007 -s 4 -d -1 -p ack -e 40 -c 2 -a 0 -i 16 -k AGT
h -t 1.366638007 -s 4 -d -1 -p ack -e 40 -c 2 -a 0 -i 16 -k AGT
+ -t 1.366638007 -s 4 -d 11 -p ack -e 40 -c 2 -a 0 -i 16 -k RTR 
- -t 1.366638007 -s 4 -d 11 -p ack -e 40 -c 2 -a 0 -i 16 -k RTR
h -t 1.366638007 -s 4 -d 11 -p ack -e 40 -c 2 -a 0 -i 16 -k RTR
+ -t 1.369923836 -s 11 -d 6 -p ack -e 40 -c 2 -a 0 -i 16 -k RTR 
- -t 1.369923836 -s 11 -d 6 -p ack -e 40 -c 2 -a 0 -i 16 -k RTR
h -t 1.369923836 -s 11 -d 6 -p ack -e 40 -c 2 -a 0 -i 16 -k RTR
+ -t 1.372053774 -s 6 -d 13 -p ack -e 40 -c 2 -a 0 -i 16 -k RTR 
- -t 1.372053774 -s 6 -d 13 -p ack -e 40 -c 2 -a 0 -i 16 -k RTR
h -t 1.372053774 -s 6 -d 13 -p ack -e 40 -c 2 -a 0 -i 16 -k RTR
+ -t 1.374419949 -s 13 -d 0 -p ack -e 40 -c 2 -a 0 -i 16 -k RTR 
- -t 1.374419949 -s 13 -d 0 -p ack -e 40 -c 2 -a 0 -i 16 -k RTR
h -t 1.374419949 -s 13 -d 0 -p ack -e 40 -c 2 -a 0 -i 16 -k RTR
r -t 1.376825442 -s 0 -d 0 -p ack -e 40 -c 2 -a 0 -i 16 -k AGT
+ -t 1.376825442 -s 0 -d -1 -p tcp -e 1540 -c 2 -a 0 -i 17 -k AGT 
- -t 1.376825442 -s 0 -d -1 -p tcp -e 1540 -c 2 -a 0 -i 17 -k AGT
h -t 1.376825442 -s 0 -d -1 -p tcp -e 1540 -c 2 -a 0 -i 17 -k AGT
+ -t 1.376825442 -s 0 -d -1 -p tcp -e 1540 -c 2 -a 0 -i 18 -k AGT 
- -t 1.376825442 -s 0 -d -1 -p tcp -e 1540 -c 2 -a 0 -i 18 -k AGT
h -t 1.376825442 -s 0 -d -1 -p tcp -e 1540 -c 2 -a 0 -i 18 -k AGT
+ -t 1.376825442 -s 0 -d 13 -p tcp -e 1540 -c 2 -a 0 -i 17 -k RTR 
- -t 1.376825442 -s 0 -d 13 -p tcp -e 1540 -c 2 -a 0 -i 17 -k RTR
h -t 1.376825442 -s 0 -d 13 -p tcp -e 1540 -c 2 -a 0 -i 17 -k RTR
+ -t 1.376825442 -s 0 -d 13 -p tcp -e 1540 -c 2 -a 0 -i 18 -k RTR 
- -t 1.376825442 -s 0 -d 13 -p tcp -e 1540 -c 2 -a 0 -i 18 -k RTR
h -t 1.376825442 -s 0 -d 13 -p tcp -e 1540 -c 2 -a 0 -i 18 -k RTR
+ -t 1.392490936 -s 13 -d 6 -p tcp -e 1540 -c 2 -a 0 -i 11 -k RTR 
- -t 1.392490936 -s 13 -d 6 -p tcp -e 1540 -c 2 -a 0 -i 11 -k RTR
h -t 1.392490936 -s 13 -d 6 -p tcp -e 1540 -c 2 -a 0 -i 11 -k RTR
+ -t 1.406456926 -s 13 -d 6 -p tcp -e 1540 -c 2 -a 0 -i 12 -k RTR 
- -t 1.406456926 -s 13 -d 6 -p tcp -e 1540 -c 2 -a 0 -i 12 -k RTR
h -t 1.406456926 -s 13 -d 6 -p tcp -e 1540 -c 2 -a 0 -i 12 -k RTR
+ -t 1.420522916 -s 13 -d 6 -p tcp -e 1540 -c 2 -a 0 -i 13 -k RTR 
- -t 1.420522916 -s 13 -d 6 -p tcp -e 1540 -c 2 -a 0 -i 13 -k RTR
h -t 1.420522916 -s 13 -d 6 -p tcp -e 1540 -c 2 -a 0 -i 13 -k RTR
+ -t 1.434489090 -s 6 -d 11 -p tcp -e 1540 -c 2 -a 0 -i 11 -k RTR 
- -t 1.434489090 -s 6 -d 11 -p tcp -e 1540 -c 2 -a 0 -i 11 -k RTR
h -t 1.434489090 -s 6 -d 11 -p tcp -e 1540 -c 2 -a 0 -i 11 -k RTR
+ -t 1.448415061 -s 11 -d 4 -p tcp -e 1540 -c 2 -a 0 -i 11 -k RTR 
- -t 1.448415061 -s 11 -d 4 -p tcp -e 1540 -c 2 -a 0 -i 11 -k RTR
h -t 1.448415061 -s 11 -d 4 -p tcp -e 1540 -c 2 -a 0 -i 11 -k RTR
r -t 1.462240886 -s 4 -d 4 -p tcp -e 1540 -c 2 -a 0 -i 11 -k AGT
+ -t 1.462240886 -s 4 -d -1 -p ack -e 40 -c 2 -a 0 -i 19 -k AGT 
- -t 1.462240886 -s 4 -d -1 -p ack -e 40 -c 2 -a 0 -i 19 -k AGT
h -t 1.462240886 -s 4 -d -1 -p ack -e 40 -c 2 -a 0 -i 19 -k AGT
+ -t 1.462240886 -s 4 -d 11 -p ack -e 40 -c 2 -a 0 -i 19 -k RTR 
- -t 1.462240886 -s 4 -d 11 -p ack -e 40 -c 2 -a 0 -i 19 -k RTR
h -t 1.462240886 -s 4 -d 11 -p ack -e 40 -c 2 -a 0 -i 19 -k RTR
+ -t 1.477354555 -s 6 -d 11 -p tcp -e 1540 -c 2 -a 0 -i 12 -k RTR 
- -t 1.477354555 -s 6 -d 11 -p tcp -e 1540 -c 2 -a 0 -i 12 -k RTR
h -t 1.477354555 -s 6 -d 11 -p tcp -e 1540 -c 2 -a 0 -i 12 -k RTR
+ -t 1.491460528 -s 11 -d 4 -p tcp -e 1540 -c 2 -a 0 -i 12 -k RTR 
- -t 1.491460528 -s 11 -d 4 -p tcp -e 1540 -c 2 -a 0 -i 12 -k RTR
h -t 1.491460528 -s 11 -d 4 -p tcp -e 1540 -c 2 -a 0 -i 12 -k RTR
+ -t 1.493356584 -s 11 -d 6 -p ack -e 40 -c 2 -a 0 -i 19 -k RTR 
- -t 1.493356584 -s 11 -d 6 -p ack -e 40 -c 2 -a 0 -i 19 -k RTR
h -t 1.493356584 -s 11 -d 6 -p ack -e 40 -c 2 -a 0 -i 19 -k RTR
r -t 1.507486380 -s 4 -d 4 -p tcp -e 1540 -c 2 -a 0 -i 12 -k AGT
+ -t 1.507486380 -s 4 -d -1 -p ack -e 40 -c 2 -a 0 -i 20 -k AGT 
- -t 1.507486380 -s 4 -d -1 -p ack -e 40 -c 2 -a 0 -i 20 -k AGT
h -t 1.507486380 -s 4 -d -1 -p ack -e 40 -c 2 -a 0 -i 20 -k AGT
+ -t 1.507486380 -s 4 -d 11 -p ack -e 40 -c 2 -a 0 -i 20 -k RTR 
- -t 1.507486380 -s 4 -d 11 -p ack -e 40 -c 2 -a 0 -i 20 -k RTR
h -t 1.507486380 -s 4 -d 11 -p ack -e 40 -c 2 -a 0 -i 20 -k RTR
+ -t 1.509612203 -s 11 -d 6 -p ack -e 40 -c 2 -a 0 -i 20 -k RTR 
- -t 1.509612203 -s 11 -d 6 -p ack -e 40 -c 2 -a 0 -i 20 -k RTR
h -t 1.509612203 -s 11 -d 6 -p ack -e 40 -c 2 -a 0 -i 20 -k RTR
+ -t 1.511698176 -s 6 -d 13 -p ack -e 40 -c 2 -a 0 -i 19 -k RTR 
- -t 1.511698176 -s 6 -d 13 -p ack -e 40 -c 2 -a 0 -i 19 -k RTR
h -t 1.511698176 -s 6 -d 13 -p ack -e 40 -c 2 -a 0 -i 19 -k RTR
+ -t 1.513564807 -s 6 -d 13 -p ack -e 40 -c 2 -a 0 -i 20 -k RTR 
- -t 1.513564807 -s 6 -d 13 -p ack -e 40 -c 2 -a 0 -i 20 -k RTR
h -t 1.513564807 -s 6 -d 13 -p ack -e 40 -c 2 -a 0 -i 20 -k RTR
+ -t 1.527541701 -s 6 -d 11 -p tcp -e 1540 -c 2 -a 0 -i 13 -k RTR 
- -t 1.527541701 -s 6 -d 11 -p tcp -e 1540 -c 2 -a 0 -i 13 -k RTR
h -t 1.527541701 -s 6 -d 11 -p tcp -e 1540 -c 2 -a 0 -i 13 -k RTR
+ -t 1.529427872 -s 13 -d 0 -p ack -e 40 -c 2 -a 0 -i 19 -k RTR 
- -t 1.529427872 -s 13 -d 0 -p ack -e 40 -c 2 -a 0 -i 19 -k RTR
h -t 1.529427872 -s 13 -d 0 -p ack -e 40 -c 2 -a 0 -i 19 -k RTR
+ -t 1.531254766 -s 13 -d 0 -p ack -e 40 -c 2 -a 0 -i 20 -k RTR 
- -t 1.531254766 -s 13 -d 0 -p ack -e 40 -c 2 -a 0 -i 20 -k RTR
h -t 1.531254766 -s 13 -d 0 -p ack -e 40 -c 2 -a 0 -i 20 -k RTR
+ -t 1.545161463 -s 11 -d 4 -p tcp -e 1540 -c 2 -a 0 -i 13 -k RTR 
- -t 1.545161463 -s 11 -d 4 -p tcp -e 1540 -c 2 -a 0 -i 13 -k RTR
h -t 1.545161463 -s 11 -d 4 -p tcp -e 1540 -c 2 -a 0 -i 13 -k RTR
r -t 1.559327284 -s 4 -d 4 -p tcp -e 1540 -c 2 -a 0 -i 13 -k AGT
+ -t 1.559327284 -s 4 -d -1 -p ack -e 40 -c 2 -a 0 -i 21 -k AGT 
- -t 1.559327284 -s 4 -d -1 -p ack -e 40 -c 2 -a 0 -i 21 -k AGT
h -t 1.559327284 -s 4 -d -1 -p ack -e 40 -c 2 -a 0 -i 21 -k AGT
+ -t 1.559327284 -s 4 -d 11 -p ack -e 40 -c 2 -a 0 -i 21 -k RTR 
- -t 1.559327284 -s 4 -d 11 -p ack -e 40 -c 2 -a 0 -i 21 -k RTR
h -t 1.559327284 -s 4 -d 11 -p ack -e 40 -c 2 -a 0 -i 21 -k RTR
+ -t 1.561173105 -s 11 -d 6 -p ack -e 40 -c 2 -a 0 -i 21 -k RTR 
- -t 1.561173105 -s 11 -d 6 -p ack -e 40 -c 2 -a 0 -i 21 -k RTR
h -t 1.561173105 -s 11 -d 6 -p ack -e 40 -c 2 -a 0 -i 21 -k RTR
+ -t 1.563299079 -s 6 -d 13 -p ack -e 40 -c 2 -a 0 -i 21 -k RTR 
- -t 1.563299079 -s 6 -d 13 -p ack -e 40 -c 2 -a 0 -i 21 -k RTR
h -t 1.563299079 -s 6 -d 13 -p ack -e 40 -c 2 -a 0 -i 21 -k RTR
r -t 1.565415289 -s 0 -d 0 -p ack -e 40 -c 2 -a 0 -i 19 -k AGT
+ -t 1.565415289 -s 0 -d -1 -p tcp -e 1540 -c 2 -a 0 -i 22 -k AGT 
- -t 1.565415289 -s 0 -d -1 -p tcp -e 1540 -c 2 -a 0 -i 22 -k AGT
h -t 1.565415289 -s 0 -d -1 -p tcp -e 1540 -c 2 -a 0 -i 22 -k AGT
+ -t 1.565415289 -s 0 -d -1 -p tcp -e 1540 -c 2 -a 0 -i 23 -k AGT 
- -t 1.565415289 -s 0 -d -1 -p tcp -e 1540 -c 2 -a 0 -i 23 -k AGT
h -t 1.565415289 -s 0 -d -1 -p tcp -e 1540 -c 2 -a 0 -i 23 -k AGT
+ -t 1.565415289 -s 0 -d 13 -p tcp -e 1540 -c 2 -a 0 -i 22 -k RTR 
- -t 1.565415289 -s 0 -d 13 -p tcp -e 1540 -c 2 -a 0 -i 22 -k RTR
h -t 1.565415289 -s 0 -d 13 -p tcp -e 1540 -c 2 -a 0 -i 22 -k RTR
+ -t 1.565415289 -s 0 -d 13 -p tcp -e 1540 -c 2 -a 0 -i 23 -k RTR 
- -t 1.565415289 -s 0 -d 13 -p tcp -e 1540 -c 2 -a 0 -i 23 -k RTR
h -t 1.565415289 -s 0 -d 13 -p tcp -e 1540 -c 2 -a 0 -i 23 -k RTR
+ -t 1.579280776 -s 13 -d 6 -p tcp -e 1540 -c 2 -a 0 -i 14 -k RTR 
- -t 1.579280776 -s 13 -d 6 -p tcp -e 1540 -c 2 -a 0 -i 14 -k RTR
h -t 1.579280776 -s 13 -d 6 -p tcp -e 1540 -c 2 -a 0 -i 14 -k RTR
r -t 1.581126262 -s 0 -d 0 -p ack -e 40 -c 2 -a 0 -i 20 -k AGT
+ -t 1.581126262 -s 0 -d -1 -p tcp -e 1540 -c 2 -a 0 -i 24 -k AGT 
- -t 1.581126262 -s 0 -d -1 -p tcp -e 1540 -c 2 -a 0 -i 24 -k AGT
h -t 1.581126262 -s 0 -d -1 -p tcp -e 1540 -c 2 -a 0 -i 24 -k AGT
+ -t 1.581126262 -s 0 -d -1 -p tcp -e 1540 -c 2 -a 0 -i 25 -k AGT 
- -t 1.581126262 -s 0 -d -1 -p tcp -e 1540 -c 2 -a 0 -i 25 -k AGT
h -t 1.581126262 -s 0 -d -1 -p tcp -e 1540 -c 2 -a 0 -i 25 -k AGT
+ -t 1.581126262 -s 0 -d 13 -p tcp -e 1540 -c 2 -a 0 -i 24 -k RTR 
- -t 1.581126262 -s 0 -d 13 -p tcp -e 1540 -c 2 -a 0 -i 24 -k RTR
h -t 1.581126262 -s 0 -d 13 -p tcp -e 1540 -c 2 -a 0 -i 24 -k RTR
+ -t 1.581126262 -s 0 -d 13 -p tcp -e 1540 -c 2 -a 0 -i 25 -k RTR 
- -t 1.581126262 -s 0 -d 13 -p tcp -e 1540 -c 2 -a 0 -i 25 -k RTR
h -t 1.581126262 -s 0 -d 13 -p tcp -e 1540 -c 2 -a 0 -i 25 -k RTR
+ -t 1.583357413 -s 13 -d 0 -p ack -e 40 -c 2 -a 0 -i 21 -k RTR 
- -t 1.583357413 -s 13 -d 0 -p ack -e 40 -c 2 -a 0 -i 21 -k RTR
h -t 1.583357413 -s 13 -d 0 -p ack -e 40 -c 2 -a 0 -i 21 -k RTR
+ -t 1.597283582 -s 6 -d 11 -p tcp -e 1540 -c 2 -a 0 -i 14 -k RTR 
- -t 1.597283582 -s 6 -d 11 -p tcp -e 1540 -c 2 -a 0 -i 14 -k RTR
h -t 1.597283582 -s 6 -d 11 -p tcp -e 1540 -c 2 -a 0 -i 14 -k RTR
r -t 1.599109791 -s 0 -d 0 -p ack -e 40 -c 2 -a 0 -i 21 -k AGT
+ -t 1.599109791 -s 0 -d -1 -p tcp -e 1540 -c 2 -a 0 -i 26 -k AGT 
- -t 1.599109791 -s 0 -d -1 -p tcp -e 1540 -c 2 -a 0 -i 26 -k AGT
h -t 1.599109791 -s 0 -d -1 -p tcp -e 1540 -c 2 -a 0 -i 26 -k AGT
+ -t 1.599109791 -s 0 -d -1 -p tcp -e 1540 -c 2 -a 0 -i 27 -k AGT 
- -t 1.599109791 -s 0 -d -1 -p tcp -e 1540 -c 2 -a 0 -i 27 -k AGT
h -t 1.599109791 -s 0 -d -1 -p tcp -e 1540 -c 2 -a 0 -i 27 -k AGT
+ -t 1.599109791 -s 0 -d 13 -p tcp -e 1540 -c 2 -a 0 -i 26 -k RTR 
- -t 1.599109791 -s 0 -d 13 -p tcp -e 1540 -c 2 -a 0 -i 26 -k RTR
h -t 1.599109791 -s 0 -d 13 -p tcp -e 1540 -c 2 -a 0 -i 26 -k RTR
+ -t 1.599109791 -s 0 -d 13 -p tcp -e 1540 -c 2 -a 0 -i 27 -k RTR 
- -t 1.599109791 -s 0 -d 13 -p tcp -e 1540 -c 2 -a 0 -i 27 -k RTR
h -t 1.599109791 -s 0 -d 13 -p tcp -e 1540 -c 2 -a 0 -i 27 -k RTR
+ -t 1.613015276 -s 13 -d 6 -p tcp -e 1540 -c 2 -a 0 -i 15 -k RTR 
- -t 1.613015276 -s 13 -d 6 -p tcp -e 1540 -c 2 -a 0 -i 15 -k RTR
h -t 1.613015276 -s 13 -d 6 -p tcp -e 1540 -c 2 -a 0 -i 15 -k RTR
+ -t 1.627161256 -s 13 -d 6 -p tcp -e 1540 -c 2 -a 0 -i 17 -k RTR 
- -t 1.627161256 -s 13 -d 6 -p tcp -e 1540 -c 2 -a 0 -i 17 -k RTR
h -t 1.627161256 -s 13 -d 6 -p tcp -e 1540 -c 2 -a 0 -i 17 -k RTR
+ -t 1.641167424 -s 6 -d 11 -p tcp -e 1540 -c 2 -a 0 -i 15 -k RTR 
- -t 1.641167424 -s 6 -d 11 -p tcp -e 1540 -c 2 -a 0 -i 15 -k RTR
h -t 1.641167424 -s 6 -d 11 -p tcp -e 1540 -c 2 -a 0 -i 15 -k RTR