r 1.031639645 _1_ RTR  --- 1 ack 40 [13a 1 4 800] ------- [4:0 0:0 30 1] [0 0] 1 0
f 1.031639645 _1_ RTR  --- 1 ack 40 [13a 1 4 800] ------- [4:0 0:0 29 2] [0 0] 1 0
r 1.033566124 _2_ RTR  --- 1 ack 40 [13a 2 1 800] ------- [4:0 0:0 29 2] [0 0] 2 0
f 1.033566124 _2_ RTR  --- 1 ack 40 [13a 2 1 800] ------- [4:0 0:0 28 0] [0 0] 2 0
r 1.035611883 _0_ AGT  --- 1 ack 40 [13a 0 2 800] ------- [4:0 0:0 28 0] [0 0] 3 0
s 1.035611883 _0_ AGT  --- 2 tcp 1540 [0 0 0 0] ------- [0:0 4:0 32 0] [1 0] 0 0
r 1.035611883 _0_ RTR  --- 2 tcp 1540 [0 0 0 0] ------- [0:0 4:0 32 0] [1 0] 0 0
s 1.035611883 _0_ AGT  --- 3 tcp 1540 [0 0 0 0] ------- [0:0 4:0 32 0] [2 0] 0 0
r 1.035611883 _0_ RTR  --- 3 tcp 1540 [0 0 0 0] ------- [0:0 4:0 32 0] [2 0] 0 0
s 1.035611883 _0_ RTR  --- 2 tcp 1540 [0 0 0 0] ------- [0:0 4:0 30 2] [1 0] 0 0
s 1.035611883 _0_ RTR  --- 3 tcp 1540 [0 0 0 0] ------- [0:0 4:0 30 2] [2 0] 0 0
r 1.050017642 _2_ RTR  --- 2 tcp 1540 [13a 2 0 800] ------- [0:0 4:0 30 2] [1 0] 1 0
f 1.050017642 _2_ RTR  --- 2 tcp 1540 [13a 2 0 800] ------- [0:0 4:0 29 1] [1 0] 1 0
r 1.063964122 _1_ RTR  --- 2 tcp 1540 [13a 1 2 800] ------- [0:0 4:0 29 1] [1 0] 2 0
f 1.063964122 _1_ RTR  --- 2 tcp 1540 [13a 1 2 800] ------- [0:0 4:0 28 4] [1 0] 2 0
r 1.078289603 _4_ AGT  --- 2 tcp 1540 [13a 4 1 800] ------- [0:0 4:0 28 4] [1 0] 3 0
s 1.078289603 _4_ AGT  --- 4 ack 40 [0 0 0 0] ------- [4:0 0:0 32 0] [1 0] 0 0
r 1.078289603 _4_ RTR  --- 4 ack 40 [0 0 0 0] ------- [4:0 0:0 32 0] [1 0] 0 0
s 1.078289603 _4_ RTR  --- 4 ack 40 [0 0 0 0] ------- [4:0 0:0 30 1] [1 0] 0 0
r 1.080295083 _1_ RTR  --- 4 ack 40 [13a 1 4 800] ------- [4:0 0:0 30 1] [1 0] 1 0
f 1.080295083 _1_ RTR  --- 4 ack 40 [13a 1 4 800] ------- [4:0 0:0 29 2] [1 0] 1 0
r 1.082221564 _2_ RTR  --- 4 ack 40 [13a 2 1 800] ------- [4:0 0:0 29 2] [1 0] 2 0
f 1.082221564 _2_ RTR  --- 4 ack 40 [13a 2 1 800] ------- [4:0 0:0 28 0] [1 0] 2 0
r 1.084047324 _0_ AGT  --- 4 ack 40 [13a 0 2 800] ------- [4:0 0:0 28 0] [1 0] 3 0
s 1.084047324 _0_ AGT  --- 5 tcp 1540 [0 0 0 0] ------- [0:0 4:0 32 0] [3 0] 0 0
r 1.084047324 _0_ RTR  --- 5 tcp 1540 [0 0 0 0] ------- [0:0 4:0 32 0] [3 0] 0 0
s 1.084047324 _0_ AGT  --- 6 tcp 1540 [0 0 0 0] ------- [0:0 4:0 32 0] [4 0] 0 0
r 1.084047324 _0_ RTR  --- 6 tcp 1540 [0 0 0 0] ------- [0:0 4:0 32 0] [4 0] 0 0
s 1.084047324 _0_ RTR  --- 5 tcp 1540 [0 0 0 0] ------- [0:0 4:0 30 2] [3 0] 0 0
s 1.084047324 _0_ RTR  --- 6 tcp 1540 [0 0 0 0] ------- [0:0 4:0 30 2] [4 0] 0 0
r 1.097973083 _2_ RTR  --- 3 tcp 1540 [13a 2 0 800] ------- [0:0 4:0 30 2] [2 0] 1 0
f 1.097973083 _2_ RTR  --- 3 tcp 1540 [13a 2 0 800] ------- [0:0 4:0 29 1] [2 0] 1 0
r 1.111959429 _2_ RTR  --- 5 tcp 1540 [13a 2 0 800] ------- [0:0 4:0 30 2] [3 0] 1 0
f 1.111959429 _2_ RTR  --- 5 tcp 1540 [13a 2 0 800] ------- [0:0 4:0 29 1] [3 0] 1 0
r 1.125845912 _1_ RTR  --- 3 tcp 1540 [13a 1 2 800] ------- [0:0 4:0 29 1] [2 0] 2 0
f 1.125845912 _1_ RTR  --- 3 tcp 1540 [13a 1 2 800] ------- [0:0 4:0 28 4] [2 0] 2 0
r 1.139753224 _1_ RTR  --- 5 tcp 1540 [13a 1 2 800] ------- [0:0 4:0 29 1] [3 0] 2 0
f 1.139753224 _1_ RTR  --- 5 tcp 1540 [13a 1 2 800] ------- [0:0 4:0 28 4] [3 0] 2 0
r 1.153618705 _4_ AGT  --- 3 tcp 1540 [13a 4 1 800] ------- [0:0 4:0 28 4] [2 0] 3 0
s 1.153618705 _4_ AGT  --- 7 ack 40 [0 0 0 0] ------- [4:0 0:0 32 0] [2 0] 0 0
r 1.153618705 _4_ RTR  --- 7 ack 40 [0 0 0 0] ------- [4:0 0:0 32 0] [2 0] 0 0
s 1.153618705 _4_ RTR  --- 7 ack 40 [0 0 0 0] ------- [4:0 0:0 30 1] [2 0] 0 0
r 1.167444679 _4_ AGT  --- 5 tcp 1540 [13a 4 1 800] ------- [0:0 4:0 28 4] [3 0] 3 0
s 1.167444679 _4_ AGT  --- 8 ack 40 [0 0 0 0] ------- [4:0 0:0 32 0] [3 0] 0 0
r 1.167444679 _4_ RTR  --- 8 ack 40 [0 0 0 0] ------- [4:0 0:0 32 0] [3 0] 0 0
s 1.167444679 _4_ RTR  --- 8 ack 40 [0 0 0 0] ------- [4:0 0:0 30 1] [3 0] 0 0
r 1.169630160 _1_ RTR  --- 7 ack 40 [13a 1 4 800] ------- [4:0 0:0 30 1] [2 0] 1 0
f 1.169630160 _1_ RTR  --- 7 ack 40 [13a 1 4 800] ------- [4:0 0:0 29 2] [2 0] 1 0
r 1.171736134 _1_ RTR  --- 8 ack 40 [13a 1 4 800] ------- [4:0 0:0 30 1] [3 0] 1 0
f 1.171736134 _1_ RTR  --- 8 ack 40 [13a 1 4 800] ------- [4:0 0:0 29 2] [3 0] 1 0
r 1.173582621 _2_ RTR  --- 7 ack 40 [13a 2 1 800] ------- [4:0 0:0 29 2] [2 0] 2 0
f 1.173582621 _2_ RTR  --- 7 ack 40 [13a 2 1 800] ------- [4:0 0:0 28 0] [2 0] 2 0
r 1.175448380 _0_ AGT  --- 7 ack 40 [13a 0 2 800] ------- [4:0 0:0 28 0] [2 0] 3 0
s 1.175448380 _0_ AGT  --- 9 tcp 1540 [0 0 0 0] ------- [0:0 4:0 32 0] [5 0] 0 0
r 1.175448380 _0_ RTR  --- 9 tcp 1540 [0 0 0 0] ------- [0:0 4:0 32 0] [5 0] 0 0
s 1.175448380 _0_ AGT  --- 10 tcp 1540 [0 0 0 0] ------- [0:0 4:0 32 0] [6 0] 0 0
r 1.175448380 _0_ RTR  --- 10 tcp 1540 [0 0 0 0] ------- [0:0 4:0 32 0] [6 0] 0 0
s 1.175448380 _0_ RTR  --- 9 tcp 1540 [0 0 0 0] ------- [0:0 4:0 30 2] [5 0] 0 0
s 1.175448380 _0_ RTR  --- 10 tcp 1540 [0 0 0 0] ------- [0:0 4:0 30 2] [6 0] 0 0
r 1.189434139 _2_ RTR  --- 6 tcp 1540 [13a 2 0 800] ------- [0:0 4:0 30 2] [4 0] 1 0
f 1.189434139 _2_ RTR  --- 6 tcp 1540 [13a 2 0 800] ------- [0:0 4:0 29 1] [4 0] 1 0
r 1.203340627 _1_ RTR  --- 6 tcp 1540 [13a 1 2 800] ------- [0:0 4:0 29 1] [4 0] 2 0
f 1.203340627 _1_ RTR  --- 6 tcp 1540 [13a 1 2 800] ------- [0:0 4:0 28 4] [4 0] 2 0
r 1.217571777 _2_ RTR  --- 9 tcp 1540 [13a 2 0 800] ------- [0:0 4:0 30 2] [5 0] 1 0
f 1.217571777 _2_ RTR  --- 9 tcp 1540 [13a 2 0 800] ------- [0:0 4:0 29 1] [5 0] 1 0
r 1.231438265 _1_ RTR  --- 9 tcp 1540 [13a 1 2 800] ------- [0:0 4:0 29 1] [5 0] 2 0
f 1.231438265 _1_ RTR  --- 9 tcp 1540 [13a 1 2 800] ------- [0:0 4:0 28 4] [5 0] 2 0
r 1.233284754 _2_ RTR  --- 8 ack 40 [13a 2 1 800] ------- [4:0 0:0 29 2] [3 0] 2 0
f 1.233284754 _2_ RTR  --- 8 ack 40 [13a 2 1 800] ------- [4:0 0:0 28 0] [3 0] 2 0
r 1.235210514 _0_ AGT  --- 8 ack 40 [13a 0 2 800] ------- [4:0 0:0 28 0] [3 0] 3 0
s 1.235210514 _0_ AGT  --- 11 tcp 1540 [0 0 0 0] ------- [0:0 4:0 32 0] [7 0] 0 0
r 1.235210514 _0_ RTR  --- 11 tcp 1540 [0 0 0 0] ------- [0:0 4:0 32 0] [7 0] 0 0
s 1.235210514 _0_ AGT  --- 12 tcp 1540 [0 0 0 0] ------- [0:0 4:0 32 0] [8 0] 0 0
r 1.235210514 _0_ RTR  --- 12 tcp 1540 [0 0 0 0] ------- [0:0 4:0 32 0] [8 0] 0 0
s 1.235210514 _0_ RTR  --- 11 tcp 1540 [0 0 0 0] ------- [0:0 4:0 30 2] [7 0] 0 0
s 1.235210514 _0_ RTR  --- 12 tcp 1540 [0 0 0 0] ------- [0:0 4:0 30 2] [8 0] 0 0
r 1.249416274 _2_ RTR  --- 10 tcp 1540 [13a 2 0 800] ------- [0:0 4:0 30 2] [6 0] 1 0
f 1.249416274 _2_ RTR  --- 10 tcp 1540 [13a 2 0 800] ------- [0:0 4:0 29 1] [6 0] 1 0
r 1.263322764 _1_ RTR  --- 10 tcp 1540 [13a 1 2 800] ------- [0:0 4:0 29 1] [6 0] 2 0
f 1.263322764 _1_ RTR  --- 10 tcp 1540 [13a 1 2 800] ------- [0:0 4:0 28 4] [6 0] 2 0
r 1.277228245 _4_ AGT  --- 6 tcp 1540 [13a 4 1 800] ------- [0:0 4:0 28 4] [4 0] 3 0
s 1.277228245 _4_ AGT  --- 13 ack 40 [0 0 0 0] ------- [4:0 0:0 32 0] [4 0] 0 0
r 1.277228245 _4_ RTR  --- 13 ack 40 [0 0 0 0] ------- [4:0 0:0 32 0] [4 0] 0 0
s 1.277228245 _4_ RTR  --- 13 ack 40 [0 0 0 0] ------- [4:0 0:0 30 1] [4 0] 0 0
r 1.279113726 _1_ RTR  --- 13 ack 40 [13a 1 4 800] ------- [4:0 0:0 30 1] [4 0] 1 0
f 1.279113726 _1_ RTR  --- 13 ack 40 [13a 1 4 800] ------- [4:0 0:0 29 2] [4 0] 1 0
r 1.293219208 _4_ AGT  --- 9 tcp 1540 [13a 4 1 800] ------- [0:0 4:0 28 4] [5 0] 3 0
s 1.293219208 _4_ AGT  --- 14 ack 40 [0 0 0 0] ------- [4:0 0:0 32 0] [5 0] 0 0
r 1.293219208 _4_ RTR  --- 14 ack 40 [0 0 0 0] ------- [4:0 0:0 32 0] [5 0] 0 0
s 1.293219208 _4_ RTR  --- 14 ack 40 [0 0 0 0] ------- [4:0 0:0 30 1] [5 0] 0 0
r 1.307165183 _4_ AGT  --- 10 tcp 1540 [13a 4 1 800] ------- [0:0 4:0 28 4] [6 0] 3 0
s 1.307165183 _4_ AGT  --- 15 ack 40 [0 0 0 0] ------- [4:0 0:0 32 0] [6 0] 0 0
r 1.307165183 _4_ RTR  --- 15 ack 40 [0 0 0 0] ------- [4:0 0:0 32 0] [6 0] 0 0
s 1.307165183 _4_ RTR  --- 15 ack 40 [0 0 0 0] ------- [4:0 0:0 30 1] [6 0] 0 0
r 1.309052170 _2_ RTR  --- 13 ack 40 [13a 2 1 800] ------- [4:0 0:0 29 2] [4 0] 2 0
f 1.309052170 _2_ RTR  --- 13 ack 40 [13a 2 1 800] ------- [4:0 0:0 28 0] [4 0] 2 0
r 1.323108490 _2_ RTR  --- 11 tcp 1540 [13a 2 0 800] ------- [0:0 4:0 30 2] [7 0] 1 0
f 1.323108490 _2_ RTR  --- 11 tcp 1540 [13a 2 0 800] ------- [0:0 4:0 29 1] [7 0] 1 0
r 1.325294250 _0_ AGT  --- 13 ack 40 [13a 0 2 800] ------- [4:0 0:0 28 0] [4 0] 3 0
s 1.325294250 _0_ AGT  --- 16 tcp 1540 [0 0 0 0] ------- [0:0 4:0 32 0] [9 0] 0 0
r 1.325294250 _0_ RTR  --- 16 tcp 1540 [0 0 0 0] ------- [0:0 4:0 32 0] [9 0] 0 0
s 1.325294250 _0_ AGT  --- 17 tcp 1540 [0 0 0 0] ------- [0:0 4:0 32 0] [10 0] 0 0
r 1.325294250 _0_ RTR  --- 17 tcp 1540 [0 0 0 0] ------- [0:0 4:0 32 0] [10 0] 0 0
s 1.325294250 _0_ RTR  --- 16 tcp 1540 [0 0 0 0] ------- [0:0 4:0 30 2] [9 0] 0 0
s 1.325294250 _0_ RTR  --- 17 tcp 1540 [0 0 0 0] ------- [0:0 4:0 30 2] [10 0] 0 0
r 1.339360010 _2_ RTR  --- 12 tcp 1540 [13a 2 0 800] ------- [0:0 4:0 30 2] [8 0] 1 0
f 1.339360010 _2_ RTR  --- 12 tcp 1540 [13a 2 0 800] ------- [0:0 4:0 29 1] [8 0] 1 0
r 1.353386504 _1_ RTR  --- 11 tcp 1540 [13a 1 2 800] ------- [0:0 4:0 29 1] [7 0] 2 0
f 1.353386504 _1_ RTR  --- 11 tcp 1540 [13a 1 2 800] ------- [0:0 4:0 28 4] [7 0] 2 0
r 1.355402159 _1_ RTR  --- 14 ack 40 [13a 1 4 800] ------- [4:0 0:0 30 1] [5 0] 1 0
f 1.355402159 _1_ RTR  --- 14 ack 40 [13a 1 4 800] ------- [4:0 0:0 29 2] [5 0] 1 0
r 1.369347641 _4_ AGT  --- 11 tcp 1540 [13a 4 1 800] ------- [0:0 4:0 28 4] [7 0] 3 0
s 1.369347641 _4_ AGT  --- 18 ack 40 [0 0 0 0] ------- [4:0 0:0 32 0] [7 0] 0 0
r 1.369347641 _4_ RTR  --- 18 ack 40 [0 0 0 0] ------- [4:0 0:0 32 0] [7 0] 0 0
s 1.369347641 _4_ RTR  --- 18 ack 40 [0 0 0 0] ------- [4:0 0:0 30 1] [7 0] 0 0
r 1.371353122 _1_ RTR  --- 15 ack 40 [13a 1 4 800] ------- [4:0 0:0 30 1] [6 0] 1 0
f 1.371353122 _1_ RTR  --- 15 ack 40 [13a 1 4 800] ------- [4:0 0:0 29 2] [6 0] 1 0
r 1.373219098 _1_ RTR  --- 18 ack 40 [13a 1 4 800] ------- [4:0 0:0 30 1] [7 0] 1 0
f 1.373219098 _1_ RTR  --- 18 ack 40 [13a 1 4 800] ------- [4:0 0:0 29 2] [7 0] 1 0
r 1.387156105 _1_ RTR  --- 12 tcp 1540 [13a 1 2 800] ------- [0:0 4:0 29 1] [8 0] 2 0
f 1.387156105 _1_ RTR  --- 12 tcp 1540 [13a 1 2 800] ------- [0:0 4:0 28 4] [8 0] 2 0
r 1.389002602 _2_ RTR  --- 14 ack 40 [13a 2 1 800] ------- [4:0 0:0 29 2] [5 0] 2 0
f 1.389002602 _2_ RTR  --- 14 ack 40 [13a 2 1 800] ------- [4:0 0:0 28 0] [5 0] 2 0
r 1.391009932 _2_ RTR  --- 15 ack 40 [13a 2 1 800] ------- [4:0 0:0 29 2] [6 0] 2 0
f 1.391009932 _2_ RTR  --- 15 ack 40 [13a 2 1 800] ------- [4:0 0:0 28 0] [6 0] 2 0
r 1.392855692 _0_ AGT  --- 14 ack 40 [13a 0 2 800] ------- [4:0 0:0 28 0] [5 0] 3 0
s 1.392855692 _0_ AGT  --- 19 tcp 1540 [0 0 0 0] ------- [0:0 4:0 32 0] [11 0] 0 0
r 1.392855692 _0_ RTR  --- 19 tcp 1540 [0 0 0 0] ------- [0:0 4:0 32 0] [11 0] 0 0
s 1.392855692 _0_ AGT  --- 20 tcp 1540 [0 0 0 0] ------- [0:0 4:0 32 0] [12 0] 0 0
r 1.392855692 _0_ RTR  --- 20 tcp 1540 [0 0 0 0] ------- [0:0 4:0 32 0] [12 0] 0 0
s 1.392855692 _0_ RTR  --- 19 tcp 1540 [0 0 0 0] ------- [0:0 4:0 30 2] [11 0] 0 0
s 1.392855692 _0_ RTR  --- 20 tcp 1540 [0 0 0 0] ------- [0:0 4:0 30 2] [12 0] 0 0
r 1.406901452 _2_ RTR  --- 16 tcp 1540 [13a 2 0 800] ------- [0:0 4:0 30 2] [9 0] 1 0
f 1.406901452 _2_ RTR  --- 16 tcp 1540 [13a 2 0 800] ------- [0:0 4:0 29 1] [9 0] 1 0
r 1.408918755 _2_ RTR  --- 18 ack 40 [13a 2 1 800] ------- [4:0 0:0 29 2] [7 0] 2 0
f 1.408918755 _2_ RTR  --- 18 ack 40 [13a 2 1 800] ------- [4:0 0:0 28 0] [7 0] 2 0
r 1.410784515 _0_ AGT  --- 15 ack 40 [13a 0 2 800] ------- [4:0 0:0 28 0] [6 0] 3 0
s 1.410784515 _0_ AGT  --- 21 tcp 1540 [0 0 0 0] ------- [0:0 4:0 32 0] [13 0] 0 0
r 1.410784515 _0_ RTR  --- 21 tcp 1540 [0 0 0 0] ------- [0:0 4:0 32 0] [13 0] 0 0
s 1.410784515 _0_ AGT  --- 22 tcp 1540 [0 0 0 0] ------- [0:0 4:0 32 0] [14 0] 0 0
r 1.410784515 _0_ RTR  --- 22 tcp 1540 [0 0 0 0] ------- [0:0 4:0 32 0] [14 0] 0 0
s 1.410784515 _0_ RTR  --- 21 tcp 1540 [0 0 0 0] ------- [0:0 4:0 30 2] [13 0] 0 0
s 1.410784515 _0_ RTR  --- 22 tcp 1540 [0 0 0 0] ------- [0:0 4:0 30 2] [14 0] 0 0
r 1.424771600 _1_ RTR  --- 16 tcp 1540 [13a 1 2 800] ------- [0:0 4:0 29 1] [9 0] 2 0
f 1.424771600 _1_ RTR  --- 16 tcp 1540 [13a 1 2 800] ------- [0:0 4:0 28 4] [9 0] 2 0
r 1.438677083 _4_ AGT  --- 12 tcp 1540 [13a 4 1 800] ------- [0:0 4:0 28 4] [8 0] 3 0
s 1.438677083 _4_ AGT  --- 23 ack 40 [0 0 0 0] ------- [4:0 0:0 32 0] [8 0] 0 0
r 1.438677083 _4_ RTR  --- 23 ack 40 [0 0 0 0] ------- [4:0 0:0 32 0] [8 0] 0 0
s 1.438677083 _4_ RTR  --- 23 ack 40 [0 0 0 0] ------- [4:0 0:0 30 1] [8 0] 0 0
r 1.452503059 _4_ AGT  --- 16 tcp 1540 [13a 4 1 800] ------- [0:0 4:0 28 4] [9 0] 3 0
s 1.452503059 _4_ AGT  --- 24 ack 40 [0 0 0 0] ------- [4:0 0:0 32 0] [9 0] 0 0
r 1.452503059 _4_ RTR  --- 24 ack 40 [0 0 0 0] ------- [4:0 0:0 32 0] [9 0] 0 0
s 1.452503059 _4_ RTR  --- 24 ack 40 [0 0 0 0] ------- [4:0 0:0 30 1] [9 0] 0 0
r 1.466754409 _2_ RTR  --- 17 tcp 1540 [13a 2 0 800] ------- [0:0 4:0 30 2] [10 0] 1 0
f 1.466754409 _2_ RTR  --- 17 tcp 1540 [13a 2 0 800] ------- [0:0 4:0 29 1] [10 0] 1 0
r 1.468660169 _0_ AGT  --- 18 ack 40 [13a 0 2 800] ------- [4:0 0:0 28 0] [7 0] 3 0
s 1.468660169 _0_ AGT  --- 25 tcp 1540 [0 0 0 0] ------- [0:0 4:0 32 0] [15 0] 0 0
r 1.468660169 _0_ RTR  --- 25 tcp 1540 [0 0 0 0] ------- [0:0 4:0 32 0] [15 0] 0 0
s 1.468660169 _0_ AGT  --- 26 tcp 1540 [0 0 0 0] ------- [0:0 4:0 32 0] [16 0] 0 0
r 1.468660169 _0_ RTR  --- 26 tcp 1540 [0 0 0 0] ------- [0:0 4:0 32 0] [16 0] 0 0
s 1.468660169 _0_ RTR  --- 25 tcp 1540 [0 0 0 0] ------- [0:0 4:0 30 2] [15 0] 0 0
s 1.468660169 _0_ RTR  --- 26 tcp 1540 [0 0 0 0] ------- [0:0 4:0 30 2] [16 0] 0 0
