n -t * -s 0  -x 526 -y 602 -Z 0 -z 25  -v circle -c black
n -t * -s 1  -x 499 -y 186 -Z 0 -z 25  -v circle -c black
n -t * -s 2  -x 552 -y 428 -Z 0 -z 25  -v circle -c black
n -t * -s 3  -x 723 -y 21 -Z 0 -z 25  -v circle -c black
n -t * -s 4  -x 640 -y 141 -Z 0 -z 25  -v circle -c black
n -t * -s 5  -x 88 -y 772 -Z 0 -z 25  -v circle -c black
n -t * -s 6  -x 591 -y 214 -Z 0 -z 25  -v circle -c black
n -t * -s 7  -x 141 -y 296 -Z 0 -z 25  -v circle -c black
n -t * -s 8  -x 200 -y 377 -Z 0 -z 25  -v circle -c black
n -t * -s 9  -x 490 -y 359 -Z 0 -z 25  -v circle -c black
V -t * -v 1.0a5 -a 0
W -t * -x 1000 -y 1000
A -t * -n 1 -p 0 -o 0x7fffffff -c 30 -a 1
A -t * -h 1 -m 1073741823 -s 0
n -t 1.000000 -s 0 -x 526.000000 -y 602.000000 -U -6.685862 -V 2.073463 -T 23.631957
n -t 1.000000 -s 1 -x 499.000000 -y 186.000000 -U -0.000000 -V 0.000000 -T 0.000000
n -t 1.000000 -s 2 -x 552.000000 -y 428.000000 -U 5.793240 -V 3.929169 -T 54.718948
n -t 1.000000 -s 3 -x 723.000000 -y 21.000000 -U -6.943685 -V 5.725839 -T 101.819133
n -t 1.000000 -s 4 -x 640.000000 -y 141.000000 -U 0.196116 -V -0.980581 -T 40.792156
n -t 1.000000 -s 5 -x 88.000000 -y 772.000000 -U 3.080184 -V -8.456504 -T 89.280388
n -t 1.000000 -s 6 -x 591.000000 -y 214.000000 -U -1.414352 -V 3.741605 -T 155.548224
n -t 1.000000 -s 7 -x 141.000000 -y 296.000000 -U 5.680092 -V 1.933016 -T 134.504853
n -t 1.000000 -s 8 -x 200.000000 -y 377.000000 -U 5.827017 -V -1.430342 -T 123.047529
n -t 1.000000 -s 9 -x 490.000000 -y 359.000000 -U -1.202457 -V 2.748472 -T 64.035580
+ -t 1.000000000 -s 0 -d -1 -p tcp -e 40 -c 2 -a 0 -i 0 -k AGT 
- -t 1.000000000 -s 0 -d -1 -p tcp -e 40 -c 2 -a 0 -i 0 -k AGT
h -t 1.000000000 -s 0 -d -1 -p tcp -e 40 -c 2 -a 0 -i 0 -k AGT
+ -t 1.000000000 -s 0 -d -1 -p AODV -e 48 -c 2 -a 0 -i 0 -k RTR 
- -t 1.000000000 -s 0 -d -1 -p AODV -e 48 -c 2 -a 0 -i 0 -k RTR
h -t 1.000000000 -s 0 -d -1 -p AODV -e 48 -c 2 -a 0 -i 0 -k RTR
r -t 1.000988586 -s 2 -d -1 -p AODV -e 48 -c 2 -a 0 -i 0 -k RTR
r -t 1.000988819 -s 9 -d -1 -p AODV -e 48 -c 2 -a 0 -i 0 -k RTR
+ -t 1.001869813 -s 2 -d -1 -p AODV -e 48 -c 2 -a 0 -i 0 -k RTR 
- -t 1.001869813 -s 2 -d -1 -p AODV -e 48 -c 2 -a 0 -i 0 -k RTR
h -t 1.001869813 -s 2 -d -1 -p AODV -e 48 -c 2 -a 0 -i 0 -k RTR
r -t 1.002818122 -s 9 -d -1 -p AODV -e 48 -c 2 -a 0 -i 0 -k RTR
r -t 1.002818400 -s 0 -d -1 -p AODV -e 48 -c 2 -a 0 -i 0 -k RTR
r -t 1.002818538 -s 6 -d -1 -p AODV -e 48 -c 2 -a 0 -i 0 -k RTR
r -t 1.002818639 -s 1 -d -1 -p AODV -e 48 -c 2 -a 0 -i 0 -k RTR
+ -t 1.005164656 -s 1 -d -1 -p AODV -e 48 -c 2 -a 0 -i 0 -k RTR 
- -t 1.005164656 -s 1 -d -1 -p AODV -e 48 -c 2 -a 0 -i 0 -k RTR
h -t 1.005164656 -s 1 -d -1 -p AODV -e 48 -c 2 -a 0 -i 0 -k RTR
+ -t 1.005400553 -s 9 -d -1 -p AODV -e 48 -c 2 -a 0 -i 0 -k RTR 
- -t 1.005400553 -s 9 -d -1 -p AODV -e 48 -c 2 -a 0 -i 0 -k RTR
h -t 1.005400553 -s 9 -d -1 -p AODV -e 48 -c 2 -a 0 -i 0 -k RTR
r -t 1.006472977 -s 6 -d -1 -p AODV -e 48 -c 2 -a 0 -i 0 -k RTR
r -t 1.006473150 -s 4 -d -1 -p AODV -e 48 -c 2 -a 0 -i 0 -k RTR
+ -t 1.006473150 -s 4 -d 1 -p AODV -e 44 -c 2 -a 0 -i 0 -k RTR 
- -t 1.006473150 -s 4 -d 1 -p AODV -e 44 -c 2 -a 0 -i 0 -k RTR
h -t 1.006473150 -s 4 -d 1 -p AODV -e 44 -c 2 -a 0 -i 0 -k RTR
r -t 1.006473234 -s 9 -d -1 -p AODV -e 48 -c 2 -a 0 -i 0 -k RTR
r -t 1.006473482 -s 2 -d -1 -p AODV -e 48 -c 2 -a 0 -i 0 -k RTR
+ -t 1.010983299 -s 6 -d -1 -p AODV -e 48 -c 2 -a 0 -i 0 -k RTR 
- -t 1.010983299 -s 6 -d -1 -p AODV -e 48 -c 2 -a 0 -i 0 -k RTR
h -t 1.010983299 -s 6 -d -1 -p AODV -e 48 -c 2 -a 0 -i 0 -k RTR
+ -t 1.011094603 -s 1 -d 2 -p AODV -e 44 -c 2 -a 0 -i 0 -k RTR 
- -t 1.011094603 -s 1 -d 2 -p AODV -e 44 -c 2 -a 0 -i 0 -k RTR
h -t 1.011094603 -s 1 -d 2 -p AODV -e 44 -c 2 -a 0 -i 0 -k RTR
r -t 1.012437302 -s 2 -d -1 -p AODV -e 48 -c 2 -a 0 -i 0 -k RTR
r -t 1.012437570 -s 1 -d -1 -p AODV -e 48 -c 2 -a 0 -i 0 -k RTR
r -t 1.012437581 -s 6 -d -1 -p AODV -e 48 -c 2 -a 0 -i 0 -k RTR
r -t 1.012437811 -s 0 -d -1 -p AODV -e 48 -c 2 -a 0 -i 0 -k RTR
r -t 1.014314184 -s 4 -d -1 -p AODV -e 48 -c 2 -a 0 -i 0 -k RTR
r -t 1.014314211 -s 1 -d -1 -p AODV -e 48 -c 2 -a 0 -i 0 -k RTR
r -t 1.014314479 -s 9 -d -1 -p AODV -e 48 -c 2 -a 0 -i 0 -k RTR
r -t 1.014314615 -s 2 -d -1 -p AODV -e 48 -c 2 -a 0 -i 0 -k RTR
r -t 1.014314670 -s 3 -d -1 -p AODV -e 48 -c 2 -a 0 -i 0 -k RTR
+ -t 1.016895549 -s 3 -d -1 -p AODV -e 48 -c 2 -a 0 -i 0 -k RTR 
- -t 1.016895549 -s 3 -d -1 -p AODV -e 48 -c 2 -a 0 -i 0 -k RTR
h -t 1.016895549 -s 3 -d -1 -p AODV -e 48 -c 2 -a 0 -i 0 -k RTR
+ -t 1.017829572 -s 2 -d 0 -p AODV -e 44 -c 2 -a 0 -i 0 -k RTR 
- -t 1.017829572 -s 2 -d 0 -p AODV -e 44 -c 2 -a 0 -i 0 -k RTR
h -t 1.017829572 -s 2 -d 0 -p AODV -e 44 -c 2 -a 0 -i 0 -k RTR
+ -t 1.023616446 -s 0 -d 2 -p tcp -e 40 -c 2 -a 0 -i 0 -k RTR 
- -t 1.023616446 -s 0 -d 2 -p tcp -e 40 -c 2 -a 0 -i 0 -k RTR
h -t 1.023616446 -s 0 -d 2 -p tcp -e 40 -c 2 -a 0 -i 0 -k RTR
+ -t 1.025482205 -s 2 -d 1 -p tcp -e 40 -c 2 -a 0 -i 0 -k RTR 
- -t 1.025482205 -s 2 -d 1 -p tcp -e 40 -c 2 -a 0 -i 0 -k RTR
h -t 1.025482205 -s 2 -d 1 -p tcp -e 40 -c 2 -a 0 -i 0 -k RTR
+ -t 1.027568684 -s 1 -d 4 -p tcp -e 40 -c 2 -a 0 -i 0 -k RTR 
- -t 1.027568684 -s 1 -d 4 -p tcp -e 40 -c 2 -a 0 -i 0 -k RTR
h -t 1.027568684 -s 1 -d 4 -p tcp -e 40 -c 2 -a 0 -i 0 -k RTR
r -t 1.029534164 -s 4 -d 4 -p tcp -e 40 -c 2 -a 0 -i 0 -k AGT
+ -t 1.029534164 -s 4 -d -1 -p ack -e 40 -c 2 -a 0 -i 1 -k AGT 
- -t 1.029534164 -s 4 -d -1 -p ack -e 40 -c 2 -a 0 -i 1 -k AGT
h -t 1.029534164 -s 4 -d -1 -p ack -e 40 -c 2 -a 0 -i 1 -k AGT
+ -t 1.029534164 -s 4 -d 1 -p ack -e 40 -c 2 -a 0 -i 1 -k RTR 
- -t 1.029534164 -s 4 -d 1 -p ack -e 40 -c 2 -a 0 -i 1 -k RTR
h -t 1.029534164 -s 4 -d 1 -p ack -e 40 -c 2 -a 0 -i 1 -k RTR
+ -t 1.031639645 -s 1 -d 2 -p ack -e 40 -c 2 -a 0 -i 1 -k RTR 
- -t 1.031639645 -s 1 -d 2 -p ack -e 40 -c 2 -a 0 -i 1 -k RTR
h -t 1.031639645 -s 1 -d 2 -p ack -e 40 -c 2 -a 0 -i 1 -k RTR
+ -t 1.033566124 -s 2 -d 0 -p ack -e 40 -c 2 -a 0 -i 1 -k RTR 
- -t 1.033566124 -s 2 -d 0 -p ack -e 40 -c 2 -a 0 -i 1 -k RTR
h -t 1.033566124 -s 2 -d 0 -p ack -e 40 -c 2 -a 0 -i 1 -k RTR
r -t 1.035611883 -s 0 -d 0 -p ack -e 40 -c 2 -a 0 -i 1 -k AGT
+ -t 1.035611883 -s 0 -d -1 -p tcp -e 1540 -c 2 -a 0 -i 2 -k AGT 
- -t 1.035611883 -s 0 -d -1 -p tcp -e 1540 -c 2 -a 0 -i 2 -k AGT
h -t 1.035611883 -s 0 -d -1 -p tcp -e 1540 -c 2 -a 0 -i 2 -k AGT
+ -t 1.035611883 -s 0 -d -1 -p tcp -e 1540 -c 2 -a 0 -i 3 -k AGT 
- -t 1.035611883 -s 0 -d -1 -p tcp -e 1540 -c 2 -a 0 -i 3 -k AGT
h -t 1.035611883 -s 0 -d -1 -p tcp -e 1540 -c 2 -a 0 -i 3 -k AGT
+ -t 1.035611883 -s 0 -d 2 -p tcp -e 1540 -c 2 -a 0 -i 2 -k RTR 
- -t 1.035611883 -s 0 -d 2 -p tcp -e 1540 -c 2 -a 0 -i 2 -k RTR
h -t 1.035611883 -s 0 -d 2 -p tcp -e 1540 -c 2 -a 0 -i 2 -k RTR
+ -t 1.035611883 -s 0 -d 2 -p tcp -e 1540 -c 2 -a 0 -i 3 -k RTR 
- -t 1.035611883 -s 0 -d 2 -p tcp -e 1540 -c 2 -a 0 -i 3 -k RTR
h -t 1.035611883 -s 0 -d 2 -p tcp -e 1540 -c 2 -a 0 -i 3 -k RTR
+ -t 1.050017642 -s 2 -d 1 -p tcp -e 1540 -c 2 -a 0 -i 2 -k RTR 
- -t 1.050017642 -s 2 -d 1 -p tcp -e 1540 -c 2 -a 0 -i 2 -k RTR
h -t 1.050017642 -s 2 -d 1 -p tcp -e 1540 -c 2 -a 0 -i 2 -k RTR
+ -t 1.063964122 -s 1 -d 4 -p tcp -e 1540 -c 2 -a 0 -i 2 -k RTR 
- -t 1.063964122 -s 1 -d 4 -p tcp -e 1540 -c 2 -a 0 -i 2 -k RTR
h -t 1.063964122 -s 1 -d 4 -p tcp -e 1540 -c 2 -a 0 -i 2 -k RTR
r -t 1.078289603 -s 4 -d 4 -p tcp -e 1540 -c 2 -a 0 -i 2 -k AGT
+ -t 1.078289603 -s 4 -d -1 -p ack -e 40 -c 2 -a 0 -i 4 -k AGT 
- -t 1.078289603 -s 4 -d -1 -p ack -e 40 -c 2 -a 0 -i 4 -k AGT
h -t 1.078289603 -s 4 -d -1 -p ack -e 40 -c 2 -a 0 -i 4 -k AGT
+ -t 1.078289603 -s 4 -d 1 -p ack -e 40 -c 2 -a 0 -i 4 -k RTR 
- -t 1.078289603 -s 4 -d 1 -p ack -e 40 -c 2 -a 0 -i 4 -k RTR
h -t 1.078289603 -s 4 -d 1 -p ack -e 40 -c 2 -a 0 -i 4 -k RTR
+ -t 1.080295083 -s 1 -d 2 -p ack -e 40 -c 2 -a 0 -i 4 -k RTR 
- -t 1.080295083 -s 1 -d 2 -p ack -e 40 -c 2 -a 0 -i 4 -k RTR
h -t 1.080295083 -s 1 -d 2 -p ack -e 40 -c 2 -a 0 -i 4 -k RTR
+ -t 1.082221564 -s 2 -d 0 -p ack -e 40 -c 2 -a 0 -i 4 -k RTR 
- -t 1.082221564 -s 2 -d 0 -p ack -e 40 -c 2 -a 0 -i 4 -k RTR
h -t 1.082221564 -s 2 -d 0 -p ack -e 40 -c 2 -a 0 -i 4 -k RTR
r -t 1.084047324 -s 0 -d 0 -p ack -e 40 -c 2 -a 0 -i 4 -k AGT
+ -t 1.084047324 -s 0 -d -1 -p tcp -e 1540 -c 2 -a 0 -i 5 -k AGT 
- -t 1.084047324 -s 0 -d -1 -p tcp -e 1540 -c 2 -a 0 -i 5 -k AGT
h -t 1.084047324 -s 0 -d -1 -p tcp -e 1540 -c 2 -a 0 -i 5 -k AGT
+ -t 1.084047324 -s 0 -d -1 -p tcp -e 1540 -c 2 -a 0 -i 6 -k AGT 
- -t 1.084047324 -s 0 -d -1 -p tcp -e 1540 -c 2 -a 0 -i 6 -k AGT
h -t 1.084047324 -s 0 -d -1 -p tcp -e 1540 -c 2 -a 0 -i 6 -k AGT
+ -t 1.084047324 -s 0 -d 2 -p tcp -e 1540 -c 2 -a 0 -i 5 -k RTR 
- -t 1.084047324 -s 0 -d 2 -p tcp -e 1540 -c 2 -a 0 -i 5 -k RTR
h -t 1.084047324 -s 0 -d 2 -p tcp -e 1540 -c 2 -a 0 -i 5 -k RTR
+ -t 1.084047324 -s 0 -d 2 -p tcp -e 1540 -c 2 -a 0 -i 6 -k RTR 
- -t 1.084047324 -s 0 -d 2 -p tcp -e 1540 -c 2 -a 0 -i 6 -k RTR
h -t 1.084047324 -s 0 -d 2 -p tcp -e 1540 -c 2 -a 0 -i 6 -k RTR
+ -t 1.097973083 -s 2 -d 1 -p tcp -e 1540 -c 2 -a 0 -i 3 -k RTR 
- -t 1.097973083 -s 2 -d 1 -p tcp -e 1540 -c 2 -a 0 -i 3 -k RTR
h -t 1.097973083 -s 2 -d 1 -p tcp -e 1540 -c 2 -a 0 -i 3 -k RTR
+ -t 1.111959429 -s 2 -d 1 -p tcp -e 1540 -c 2 -a 0 -i 5 -k RTR 
- -t 1.111959429 -s 2 -d 1 -p tcp -e 1540 -c 2 -a 0 -i 5 -k RTR
h -t 1.111959429 -s 2 -d 1 -p tcp -e 1540 -c 2 -a 0 -i 5 -k RTR
+ -t 1.125845912 -s 1 -d 4 -p tcp -e 1540 -c 2 -a 0 -i 3 -k RTR 
- -t 1.125845912 -s 1 -d 4 -p tcp -e 1540 -c 2 -a 0 -i 3 -k RTR
h -t 1.125845912 -s 1 -d 4 -p tcp -e 1540 -c 2 -a 0 -i 3 -k RTR
+ -t 1.139753224 -s 1 -d 4 -p tcp -e 1540 -c 2 -a 0 -i 5 -k RTR 
- -t 1.139753224 -s 1 -d 4 -p tcp -e 1540 -c 2 -a 0 -i 5 -k RTR
h -t 1.139753224 -s 1 -d 4 -p tcp -e 1540 -c 2 -a 0 -i 5 -k RTR
r -t 1.153618705 -s 4 -d 4 -p tcp -e 1540 -c 2 -a 0 -i 3 -k AGT
+ -t 1.153618705 -s 4 -d -1 -p ack -e 40 -c 2 -a 0 -i 7 -k AGT 
- -t 1.153618705 -s 4 -d -1 -p ack -e 40 -c 2 -a 0 -i 7 -k AGT
h -t 1.153618705 -s 4 -d -1 -p ack -e 40 -c 2 -a 0 -i 7 -k AGT
+ -t 1.153618705 -s 4 -d 1 -p ack -e 40 -c 2 -a 0 -i 7 -k RTR 
- -t 1.153618705 -s 4 -d 1 -p ack -e 40 -c 2 -a 0 -i 7 -k RTR
h -t 1.153618705 -s 4 -d 1 -p ack -e 40 -c 2 -a 0 -i 7 -k RTR
r -t 1.167444679 -s 4 -d 4 -p tcp -e 1540 -c 2 -a 0 -i 5 -k AGT
+ -t 1.167444679 -s 4 -d -1 -p ack -e 40 -c 2 -a 0 -i 8 -k AGT 
- -t 1.167444679 -s 4 -d -1 -p ack -e 40 -c 2 -a 0 -i 8 -k AGT
h -t 1.167444679 -s 4 -d -1 -p ack -e 40 -c 2 -a 0 -i 8 -k AGT
+ -t 1.167444679 -s 4 -d 1 -p ack -e 40 -c 2 -a 0 -i 8 -k RTR 
- -t 1.167444679 -s 4 -d 1 -p ack -e 40 -c 2 -a 0 -i 8 -k RTR
h -t 1.167444679 -s 4 -d 1 -p ack -e 40 -c 2 -a 0 -i 8 -k RTR
+ -t 1.169630160 -s 1 -d 2 -p ack -e 40 -c 2 -a 0 -i 7 -k RTR 
- -t 1.169630160 -s 1 -d 2 -p ack -e 40 -c 2 -a 0 -i 7 -k RTR
h -t 1.169630160 -s 1 -d 2 -p ack -e 40 -c 2 -a 0 -i 7 -k RTR
+ -t 1.171736134 -s 1 -d 2 -p ack -e 40 -c 2 -a 0 -i 8 -k RTR 
- -t 1.171736134 -s 1 -d 2 -p ack -e 40 -c 2 -a 0 -i 8 -k RTR
h -t 1.171736134 -s 1 -d 2 -p ack -e 40 -c 2 -a 0 -i 8 -k RTR
+ -t 1.173582621 -s 2 -d 0 -p ack -e 40 -c 2 -a 0 -i 7 -k RTR 
- -t 1.173582621 -s 2 -d 0 -p ack -e 40 -c 2 -a 0 -i 7 -k RTR
h -t 1.173582621 -s 2 -d 0 -p ack -e 40 -c 2 -a 0 -i 7 -k RTR
r -t 1.175448380 -s 0 -d 0 -p ack -e 40 -c 2 -a 0 -i 7 -k AGT
+ -t 1.175448380 -s 0 -d -1 -p tcp -e 1540 -c 2 -a 0 -i 9 -k AGT 
- -t 1.175448380 -s 0 -d -1 -p tcp -e 1540 -c 2 -a 0 -i 9 -k AGT
h -t 1.175448380 -s 0 -d -1 -p tcp -e 1540 -c 2 -a 0 -i 9 -k AGT
+ -t 1.175448380 -s 0 -d -1 -p tcp -e 1540 -c 2 -a 0 -i 10 -k AGT 
- -t 1.175448380 -s 0 -d -1 -p tcp -e 1540 -c 2 -a 0 -i 10 -k AGT
h -t 1.175448380 -s 0 -d -1 -p tcp -e 1540 -c 2 -a 0 -i 10 -k AGT
+ -t 1.175448380 -s 0 -d 2 -p tcp -e 1540 -c 2 -a 0 -i 9 -k RTR 
- -t 1.175448380 -s 0 -d 2 -p tcp -e 1540 -c 2 -a 0 -i 9 -k RTR
h -t 1.175448380 -s 0 -d 2 -p tcp -e 1540 -c 2 -a 0 -i 9 -k RTR
+ -t 1.175448380 -s 0 -d 2 -p tcp -e 1540 -c 2 -a 0 -i 10 -k RTR 
- -t 1.175448380 -s 0 -d 2 -p tcp -e 1540 -c 2 -a 0 -i 10 -k RTR
h -t 1.175448380 -s 0 -d 2 -p tcp -e 1540 -c 2 -a 0 -i 10 -k RTR
+ -t 1.189434139 -s 2 -d 1 -p tcp -e 1540 -c 2 -a 0 -i 6 -k RTR 
- -t 1.189434139 -s 2 -d 1 -p tcp -e 1540 -c 2 -a 0 -i 6 -k RTR
h -t 1.189434139 -s 2 -d 1 -p tcp -e 1540 -c 2 -a 0 -i 6 -k RTR
+ -t 1.203340627 -s 1 -d 4 -p tcp -e 1540 -c 2 -a 0 -i 6 -k RTR 
- -t 1.203340627 -s 1 -d 4 -p tcp -e 1540 -c 2 -a 0 -i 6 -k RTR
h -t 1.203340627 -s 1 -d 4 -p tcp -e 1540 -c 2 -a 0 -i 6 -k RTR
+ -t 1.217571777 -s 2 -d 1 -p tcp -e 1540 -c 2 -a 0 -i 9 -k RTR 
- -t 1.217571777 -s 2 -d 1 -p tcp -e 1540 -c 2 -a 0 -i 9 -k RTR
h -t 1.217571777 -s 2 -d 1 -p tcp -e 1540 -c 2 -a 0 -i 9 -k RTR
+ -t 1.231438265 -s 1 -d 4 -p tcp -e 1540 -c 2 -a 0 -i 9 -k RTR 
- -t 1.231438265 -s 1 -d 4 -p tcp -e 1540 -c 2 -a 0 -i 9 -k RTR
h -t 1.231438265 -s 1 -d 4 -p tcp -e 1540 -c 2 -a 0 -i 9 -k RTR
+ -t 1.233284754 -s 2 -d 0 -p ack -e 40 -c 2 -a 0 -i 8 -k RTR 
- -t 1.233284754 -s 2 -d 0 -p ack -e 40 -c 2 -a 0 -i 8 -k RTR
h -t 1.233284754 -s 2 -d 0 -p ack -e 40 -c 2 -a 0 -i 8 -k RTR
r -t 1.235210514 -s 0 -d 0 -p ack -e 40 -c 2 -a 0 -i 8 -k AGT
+ -t 1.235210514 -s 0 -d -1 -p tcp -e 1540 -c 2 -a 0 -i 11 -k AGT 
- -t 1.235210514 -s 0 -d -1 -p tcp -e 1540 -c 2 -a 0 -i 11 -k AGT
h -t 1.235210514 -s 0 -d -1 -p tcp -e 1540 -c 2 -a 0 -i 11 -k AGT
+ -t 1.235210514 -s 0 -d -1 -p tcp -e 1540 -c 2 -a 0 -i 12 -k AGT 
- -t 1.235210514 -s 0 -d -1 -p tcp -e 1540 -c 2 -a 0 -i 12 -k AGT
h -t 1.235210514 -s 0 -d -1 -p tcp -e 1540 -c 2 -a 0 -i 12 -k AGT
+ -t 1.235210514 -s 0 -d 2 -p tcp -e 1540 -c 2 -a 0 -i 11 -k RTR 
- -t 1.235210514 -s 0 -d 2 -p tcp -e 1540 -c 2 -a 0 -i 11 -k RTR
h -t 1.235210514 -s 0 -d 2 -p tcp -e 1540 -c 2 -a 0 -i 11 -k RTR
+ -t 1.235210514 -s 0 -d 2 -p tcp -e 1540 -c 2 -a 0 -i 12 -k RTR 
- -t 1.235210514 -s 0 -d 2 -p tcp -e 1540 -c 2 -a 0 -i 12 -k RTR
h -t 1.235210514 -s 0 -d 2 -p tcp -e 1540 -c 2 -a 0 -i 12 -k RTR
+ -t 1.249416274 -s 2 -d 1 -p tcp -e 1540 -c 2 -a 0 -i 10 -k RTR 
- -t 1.249416274 -s 2 -d 1 -p tcp -e 1540 -c 2 -a 0 -i 10 -k RTR
h -t 1.249416274 -s 2 -d 1 -p tcp -e 1540 -c 2 -a 0 -i 10 -k RTR
+ -t 1.263322764 -s 1 -d 4 -p tcp -e 1540 -c 2 -a 0 -i 10 -k RTR 
- -t 1.263322764 -s 1 -d 4 -p tcp -e 1540 -c 2 -a 0 -i 10 -k RTR
h -t 1.263322764 -s 1 -d 4 -p tcp -e 1540 -c 2 -a 0 -i 10 -k RTR
r -t 1.277228245 -s 4 -d 4 -p tcp -e 1540 -c 2 -a 0 -i 6 -k AGT
+ -t 1.277228245 -s 4 -d -1 -p ack -e 40 -c 2 -a 0 -i 13 -k AGT 
- -t 1.277228245 -s 4 -d -1 -p ack -e 40 -c 2 -a 0 -i 13 -k AGT
h -t 1.277228245 -s 4 -d -1 -p ack -e 40 -c 2 -a 0 -i 13 -k AGT
+ -t 1.277228245 -s 4 -d 1 -p ack -e 40 -c 2 -a 0 -i 13 -k RTR 
- -t 1.277228245 -s 4 -d 1 -p ack -e 40 -c 2 -a 0 -i 13 -k RTR
h -t 1.277228245 -s 4 -d 1 -p ack -e 40 -c 2 -a 0 -i 13 -k RTR
+ -t 1.279113726 -s 1 -d 2 -p ack -e 40 -c 2 -a 0 -i 13 -k RTR 
- -t 1.279113726 -s 1 -d 2 -p ack -e 40 -c 2 -a 0 -i 13 -k RTR
h -t 1.279113726 -s 1 -d 2 -p ack -e 40 -c 2 -a 0 -i 13 -k RTR
r -t 1.293219208 -s 4 -d 4 -p tcp -e 1540 -c 2 -a 0 -i 9 -k AGT
+ -t 1.293219208 -s 4 -d -1 -p ack -e 40 -c 2 -a 0 -i 14 -k AGT 
- -t 1.293219208 -s 4 -d -1 -p ack -e 40 -c 2 -a 0 -i 14 -k AGT
h -t 1.293219208 -s 4 -d -1 -p ack -e 40 -c 2 -a 0 -i 14 -k AGT
+ -t 1.293219208 -s 4 -d 1 -p ack -e 40 -c 2 -a 0 -i 14 -k RTR 
- -t 1.293219208 -s 4 -d 1 -p ack -e 40 -c 2 -a 0 -i 14 -k RTR
h -t 1.293219208 -s 4 -d 1 -p ack -e 40 -c 2 -a 0 -i 14 -k RTR
r -t 1.307165183 -s 4 -d 4 -p tcp -e 1540 -c 2 -a 0 -i 10 -k AGT
+ -t 1.307165183 -s 4 -d -1 -p ack -e 40 -c 2 -a 0 -i 15 -k AGT 
- -t 1.307165183 -s 4 -d -1 -p ack -e 40 -c 2 -a 0 -i 15 -k AGT
h -t 1.307165183 -s 4 -d -1 -p ack -e 40 -c 2 -a 0 -i 15 -k AGT
+ -t 1.307165183 -s 4 -d 1 -p ack -e 40 -c 2 -a 0 -i 15 -k RTR 
- -t 1.307165183 -s 4 -d 1 -p ack -e 40 -c 2 -a 0 -i 15 -k RTR
h -t 1.307165183 -s 4 -d 1 -p ack -e 40 -c 2 -a 0 -i 15 -k RTR
+ -t 1.309052170 -s 2 -d 0 -p ack -e 40 -c 2 -a 0 -i 13 -k RTR 
- -t 1.309052170 -s 2 -d 0 -p ack -e 40 -c 2 -a 0 -i 13 -k RTR
h -t 1.309052170 -s 2 -d 0 -p ack -e 40 -c 2 -a 0 -i 13 -k RTR
+ -t 1.323108490 -s 2 -d 1 -p tcp -e 1540 -c 2 -a 0 -i 11 -k RTR 
- -t 1.323108490 -s 2 -d 1 -p tcp -e 1540 -c 2 -a 0 -i 11 -k RTR
h -t 1.323108490 -s 2 -d 1 -p tcp -e 1540 -c 2 -a 0 -i 11 -k RTR
r -t 1.325294250 -s 0 -d 0 -p ack -e 40 -c 2 -a 0 -i 13 -k AGT
+ -t 1.325294250 -s 0 -d -1 -p tcp -e 1540 -c 2 -a 0 -i 16 -k AGT 
- -t 1.325294250 -s 0 -d -1 -p tcp -e 1540 -c 2 -a 0 -i 16 -k AGT
h -t 1.325294250 -s 0 -d -1 -p tcp -e 1540 -c 2 -a 0 -i 16 -k AGT
+ -t 1.325294250 -s 0 -d -1 -p tcp -e 1540 -c 2 -a 0 -i 17 -k AGT 
- -t 1.325294250 -s 0 -d -1 -p tcp -e 1540 -c 2 -a 0 -i 17 -k AGT
h -t 1.325294250 -s 0 -d -1 -p tcp -e 1540 -c 2 -a 0 -i 17 -k AGT
+ -t 1.325294250 -s 0 -d 2 -p tcp -e 1540 -c 2 -a 0 -i 16 -k RTR 
- -t 1.325294250 -s 0 -d 2 -p tcp -e 1540 -c 2 -a 0 -i 16 -k RTR
h -t 1.325294250 -s 0 -d 2 -p tcp -e 1540 -c 2 -a 0 -i 16 -k RTR
+ -t 1.325294250 -s 0 -d 2 -p tcp -e 1540 -c 2 -a 0 -i 17 -k RTR 
- -t 1.325294250 -s 0 -d 2 -p tcp -e 1540 -c 2 -a 0 -i 17 -k RTR
h -t 1.325294250 -s 0 -d 2 -p tcp -e 1540 -c 2 -a 0 -i 17 -k RTR
+ -t 1.339360010 -s 2 -d 1 -p tcp -e 1540 -c 2 -a 0 -i 12 -k RTR 
- -t 1.339360010 -s 2 -d 1 -p tcp -e 1540 -c 2 -a 0 -i 12 -k RTR
h -t 1.339360010 -s 2 -d 1 -p tcp -e 1540 -c 2 -a 0 -i 12 -k RTR
+ -t 1.353386504 -s 1 -d 4 -p tcp -e 1540 -c 2 -a 0 -i 11 -k RTR 
- -t 1.353386504 -s 1 -d 4 -p tcp -e 1540 -c 2 -a 0 -i 11 -k RTR
h -t 1.353386504 -s 1 -d 4 -p tcp -e 1540 -c 2 -a 0 -i 11 -k RTR
+ -t 1.355402159 -s 1 -d 2 -p ack -e 40 -c 2 -a 0 -i 14 -k RTR 
- -t 1.355402159 -s 1 -d 2 -p ack -e 40 -c 2 -a 0 -i 14 -k RTR
h -t 1.355402159 -s 1 -d 2 -p ack -e 40 -c 2 -a 0 -i 14 -k RTR
r -t 1.369347641 -s 4 -d 4 -p tcp -e 1540 -c 2 -a 0 -i 11 -k AGT
+ -t 1.369347641 -s 4 -d -1 -p ack -e 40 -c 2 -a 0 -i 18 -k AGT 
- -t 1.369347641 -s 4 -d -1 -p ack -e 40 -c 2 -a 0 -i 18 -k AGT
h -t 1.369347641 -s 4 -d -1 -p ack -e 40 -c 2 -a 0 -i 18 -k AGT
+ -t 1.369347641 -s 4 -d 1 -p ack -e 40 -c 2 -a 0 -i 18 -k RTR 
- -t 1.369347641 -s 4 -d 1 -p ack -e 40 -c 2 -a 0 -i 18 -k RTR
h -t 1.369347641 -s 4 -d 1 -p ack -e 40 -c 2 -a 0 -i 18 -k RTR
+ -t 1.371353122 -s 1 -d 2 -p ack -e 40 -c 2 -a 0 -i 15 -k RTR 
- -t 1.371353122 -s 1 -d 2 -p ack -e 40 -c 2 -a 0 -i 15 -k RTR
h -t 1.371353122 -s 1 -d 2 -p ack -e 40 -c 2 -a 0 -i 15 -k RTR
+ -t 1.373219098 -s 1 -d 2 -p ack -e 40 -c 2 -a 0 -i 18 -k RTR 
- -t 1.373219098 -s 1 -d 2 -p ack -e 40 -c 2 -a 0 -i 18 -k RTR
h -t 1.373219098 -s 1 -d 2 -p ack -e 40 -c 2 -a 0 -i 18 -k RTR
+ -t 1.387156105 -s 1 -d 4 -p tcp -e 1540 -c 2 -a 0 -i 12 -k RTR 
- -t 1.387156105 -s 1 -d 4 -p tcp -e 1540 -c 2 -a 0 -i 12 -k RTR
h -t 1.387156105 -s 1 -d 4 -p tcp -e 1540 -c 2 -a 0 -i 12 -k RTR
+ -t 1.389002602 -s 2 -d 0 -p ack -e 40 -c 2 -a 0 -i 14 -k RTR 
- -t 1.389002602 -s 2 -d 0 -p ack -e 40 -c 2 -a 0 -i 14 -k RTR
h -t 1.389002602 -s 2 -d 0 -p ack -e 40 -c 2 -a 0 -i 14 -k RTR
+ -t 1.391009932 -s 2 -d 0 -p ack -e 40 -c 2 -a 0 -i 15 -k RTR 
- -t 1.391009932 -s 2 -d 0 -p ack -e 40 -c 2 -a 0 -i 15 -k RTR
h -t 1.391009932 -s 2 -d 0 -p ack -e 40 -c 2 -a 0 -i 15 -k RTR
r -t 1.392855692 -s 0 -d 0 -p ack -e 40 -c 2 -a 0 -i 14 -k AGT
+ -t 1.392855692 -s 0 -d -1 -p tcp -e 1540 -c 2 -a 0 -i 19 -k AGT 
- -t 1.392855692 -s 0 -d -1 -p tcp -e 1540 -c 2 -a 0 -i 19 -k AGT
h -t 1.392855692 -s 0 -d -1 -p tcp -e 1540 -c 2 -a 0 -i 19 -k AGT
+ -t 1.392855692 -s 0 -d -1 -p tcp -e 1540 -c 2 -a 0 -i 20 -k AGT 
- -t 1.392855692 -s 0 -d -1 -p tcp -e 1540 -c 2 -a 0 -i 20 -k AGT
h -t 1.392855692 -s 0 -d -1 -p tcp -e 1540 -c 2 -a 0 -i 20 -k AGT
+ -t 1.392855692 -s 0 -d 2 -p tcp -e 1540 -c 2 -a 0 -i 19 -k RTR 
- -t 1.392855692 -s 0 -d 2 -p tcp -e 1540 -c 2 -a 0 -i 19 -k RTR
h -t 1.392855692 -s 0 -d 2 -p tcp -e 1540 -c 2 -a 0 -i 19 -k RTR
+ -t 1.392855692 -s 0 -d 2 -p tcp -e 1540 -c 2 -a 0 -i 20 -k RTR 
- -t 1.392855692 -s 0 -d 2 -p tcp -e 1540 -c 2 -a 0 -i 20 -k RTR
h -t 1.392855692 -s 0 -d 2 -p tcp -e 1540 -c 2 -a 0 -i 20 -k RTR
+ -t 1.406901452 -s 2 -d 1 -p tcp -e 1540 -c 2 -a 0 -i 16 -k RTR 
- -t 1.406901452 -s 2 -d 1 -p tcp -e 1540 -c 2 -a 0 -i 16 -k RTR
h -t 1.406901452 -s 2 -d 1 -p tcp -e 1540 -c 2 -a 0 -i 16 -k RTR
+ -t 1.408918755 -s 2 -d 0 -p ack -e 40 -c 2 -a 0 -i 18 -k RTR 
- -t 1.408918755 -s 2 -d 0 -p ack -e 40 -c 2 -a 0 -i 18 -k RTR
h -t 1.408918755 -s 2 -d 0 -p ack -e 40 -c 2 -a 0 -i 18 -k RTR
r -t 1.410784515 -s 0 -d 0 -p ack -e 40 -c 2 -a 0 -i 15 -k AGT
+ -t 1.410784515 -s 0 -d -1 -p tcp -e 1540 -c 2 -a 0 -i 21 -k AGT 
- -t 1.410784515 -s 0 -d -1 -p tcp -e 1540 -c 2 -a 0 -i 21 -k AGT
h -t 1.410784515 -s 0 -d -1 -p tcp -e 1540 -c 2 -a 0 -i 21 -k AGT
+ -t 1.410784515 -s 0 -d -1 -p tcp -e 1540 -c 2 -a 0 -i 22 -k AGT 
- -t 1.410784515 -s 0 -d -1 -p tcp -e 1540 -c 2 -a 0 -i 22 -k AGT
h -t 1.410784515 -s 0 -d -1 -p tcp -e 1540 -c 2 -a 0 -i 22 -k AGT
+ -t 1.410784515 -s 0 -d 2 -p tcp -e 1540 -c 2 -a 0 -i 21 -k RTR 
- -t 1.410784515 -s 0 -d 2 -p tcp -e 1540 -c 2 -a 0 -i 21 -k RTR
h -t 1.410784515 -s 0 -d 2 -p tcp -e 1540 -c 2 -a 0 -i 21 -k RTR
+ -t 1.410784515 -s 0 -d 2 -p tcp -e 1540 -c 2 -a 0 -i 22 -k RTR 
- -t 1.410784515 -s 0 -d 2 -p tcp -e 1540 -c 2 -a 0 -i 22 -k RTR
h -t 1.410784515 -s 0 -d 2 -p tcp -e 1540 -c 2 -a 0 -i 22 -k RTR
+ -t 1.424771600 -s 1 -d 4 -p tcp -e 1540 -c 2 -a 0 -i 16 -k RTR 
- -t 1.424771600 -s 1 -d 4 -p tcp -e 1540 -c 2 -a 0 -i 16 -k RTR
h -t 1.424771600 -s 1 -d 4 -p tcp -e 1540 -c 2 -a 0 -i 16 -k RTR
r -t 1.438677083 -s 4 -d 4 -p tcp -e 1540 -c 2 -a 0 -i 12 -k AGT
+ -t 1.438677083 -s 4 -d -1 -p ack -e 40 -c 2 -a 0 -i 23 -k AGT 
- -t 1.438677083 -s 4 -d -1 -p ack -e 40 -c 2 -a 0 -i 23 -k AGT
h -t 1.438677083 -s 4 -d -1 -p ack -e 40 -c 2 -a 0 -i 23 -k AGT
+ -t 1.438677083 -s 4 -d 1 -p ack -e 40 -c 2 -a 0 -i 23 -k RTR 
- -t 1.438677083 -s 4 -d 1 -p ack -e 40 -c 2 -a 0 -i 23 -k RTR
h -t 1.438677083 -s 4 -d 1 -p ack -e 40 -c 2 -a 0 -i 23 -k RTR
r -t 1.452503059 -s 4 -d 4 -p tcp -e 1540 -c 2 -a 0 -i 16 -k AGT
+ -t 1.452503059 -s 4 -d -1 -p ack -e 40 -c 2 -a 0 -i 24 -k AGT 
- -t 1.452503059 -s 4 -d -1 -p ack -e 40 -c 2 -a 0 -i 24 -k AGT
h -t 1.452503059 -s 4 -d -1 -p ack -e 40 -c 2 -a 0 -i 24 -k AGT
+ -t 1.452503059 -s 4 -d 1 -p ack -e 40 -c 2 -a 0 -i 24 -k RTR 
- -t 1.452503059 -s 4 -d 1 -p ack -e 40 -c 2 -a 0 -i 24 -k RTR
h -t 1.452503059 -s 4 -d 1 -p ack -e 40 -c 2 -a 0 -i 24 -k RTR
+ -t 1.466754409 -s 2 -d 1 -p tcp -e 1540 -c 2 -a 0 -i 17 -k RTR 
- -t 1.466754409 -s 2 -d 1 -p tcp -e 1540 -c 2 -a 0 -i 17 -k RTR
h -t 1.466754409 -s 2 -d 1 -p tcp -e 1540 -c 2 -a 0 -i 17 -k RTR
r -t 1.468660169 -s 0 -d 0 -p ack -e 40 -c 2 -a 0 -i 18 -k AGT
+ -t 1.468660169 -s 0 -d -1 -p tcp -e 1540 -c 2 -a 0 -i 25 -k AGT 
- -t 1.468660169 -s 0 -d -1 -p tcp -e 1540 -c 2 -a 0 -i 25 -k AGT
h -t 1.468660169 -s 0 -d -1 -p tcp -e 1540 -c 2 -a 0 -i 25 -k AGT
+ -t 1.468660169 -s 0 -d -1 -p tcp -e 1540 -c 2 -a 0 -i 26 -k AGT 
- -t 1.468660169 -s 0 -d -1 -p tcp -e 1540 -c 2 -a 0 -i 26 -k AGT
h -t 1.468660169 -s 0 -d -1 -p tcp -e 1540 -c 2 -a 0 -i 26 -k AGT
+ -t 1.468660169 -s 0 -d 2 -p tcp -e 1540 -c 2 -a 0 -i 25 -k RTR 
- -t 1.468660169 -s 0 -d 2 -p tcp -e 1540 -c 2 -a 0 -i 25 -k RTR
h -t 1.468660169 -s 0 -d 2 -p tcp -e 1540 -c 2 -a 0 -i 25 -k RTR
+ -t 1.468660169 -s 0 -d 2 -p tcp -e 1540 -c 2 -a 0 -i 26 -k RTR 
- -t 1.468660169 -s 0 -d 2 -p tcp -e 1540 -c 2 -a 0 -i 26 -k RTR
h -t 1.468660169 -s 0 -d 2 -p tcp -e 1540 -c 2 -a 0 -i 26 -k RTR
+ -t 1.482765930 -s 2 -d 1 -p tcp -e 1540 -c 2 -a 0 -i 19 -k RTR 
- -t 1.482765930 -s 2 -d 1 -p tcp -e 1540 -c 2 -a 0 -i 19 -k RTR
h -t 1.482765930 -s 2 -d 1 -p tcp -e 1540 -c 2 -a 0 -i 19 -k RTR
+ -t 1.485438418 -s 1 -d 2 -p ack -e 40 -c 2 -a 0 -i 23 -k RTR 
- -t 1.485438418 -s 1 -d 2 -p ack -e 40 -c 2 -a 0 -i 23 -k RTR
h -t 1.485438418 -s 1 -d 2 -p ack -e 40 -c 2 -a 0 -i 23 -k RTR
+ -t 1.487424394 -s 1 -d 2 -p ack -e 40 -c 2 -a 0 -i 24 -k RTR 
- -t 1.487424394 -s 1 -d 2 -p ack -e 40 -c 2 -a 0 -i 24 -k RTR
h -t 1.487424394 -s 1 -d 2 -p ack -e 40 -c 2 -a 0 -i 24 -k RTR
d -t 1.511981234 -s 2 -d 1 -p tcp -e 1540 -c 2 -a 0 -i 17 -k RTR
d -t 1.511981234 -s 2 -d 1 -p tcp -e 1540 -c 2 -a 0 -i 19 -k RTR
+ -t 1.511981234 -s 2 -d 0 -p AODV -e 32 -c 2 -a 0 -i 0 -k RTR 
- -t 1.511981234 -s 2 -d 0 -p AODV -e 32 -c 2 -a 0 -i 0 -k RTR
h -t 1.511981234 -s 2 -d 0 -p AODV -e 32 -c 2 -a 0 -i 0 -k RTR
r -t 1.513061552 -s 9 -d 0 -p AODV -e 32 -c 2 -a 0 -i 0 -k RTR
r -t 1.513061820 -s 0 -d 0 -p AODV -e 32 -c 2 -a 0 -i 0 -k RTR
d -t 1.513061820 -s 0 -d 2 -p tcp -e 1540 -c 2 -a 0 -i 21 -k RTR
d -t 1.513061820 -s 0 -d 2 -p tcp -e 1540 -c 2 -a 0 -i 22 -k RTR
d -t 1.513061820 -s 0 -d 2 -p tcp -e 1540 -c 2 -a 0 -i 25 -k RTR
d -t 1.513061820 -s 0 -d 2 -p tcp -e 1540 -c 2 -a 0 -i 26 -k RTR
r -t 1.513061957 -s 6 -d 0 -p AODV -e 32 -c 2 -a 0 -i 0 -k RTR
d -t 1.539002581 -s 2 -d 2 -p tcp -e 1540 -c 2 -a 0 -i 20 -k RTR
+ -t 1.539002581 -s 2 -d 0 -p AODV -e 32 -c 2 -a 0 -i 0 -k RTR 
- -t 1.539002581 -s 2 -d 0 -p AODV -e 32 -c 2 -a 0 -i 0 -k RTR
h -t 1.539002581 -s 2 -d 0 -p AODV -e 32 -c 2 -a 0 -i 0 -k RTR
r -t 1.540466900 -s 9 -d 0 -p AODV -e 32 -c 2 -a 0 -i 0 -k RTR
r -t 1.540467168 -s 0 -d 0 -p AODV -e 32 -c 2 -a 0 -i 0 -k RTR
r -t 1.540467304 -s 6 -d 0 -p AODV -e 32 -c 2 -a 0 -i 0 -k RTR
d -t 1.557966416 -s 1 -d 2 -p ack -e 40 -c 2 -a 0 -i 23 -k RTR
d -t 1.557966416 -s 1 -d 2 -p ack -e 40 -c 2 -a 0 -i 24 -k RTR
+ -t 1.557966416 -s 1 -d 0 -p AODV -e 32 -c 2 -a 0 -i 0 -k RTR 
- -t 1.557966416 -s 1 -d 0 -p AODV -e 32 -c 2 -a 0 -i 0 -k RTR
h -t 1.557966416 -s 1 -d 0 -p AODV -e 32 -c 2 -a 0 -i 0 -k RTR
r -t 1.559266736 -s 6 -d 0 -p AODV -e 32 -c 2 -a 0 -i 0 -k RTR
r -t 1.559266910 -s 4 -d 0 -p AODV -e 32 -c 2 -a 0 -i 0 -k RTR
r -t 1.559266999 -s 9 -d 0 -p AODV -e 32 -c 2 -a 0 -i 0 -k RTR
+ -t 1.868660169 -s 0 -d -1 -p tcp -e 1540 -c 2 -a 0 -i 27 -k AGT 
- -t 1.868660169 -s 0 -d -1 -p tcp -e 1540 -c 2 -a 0 -i 27 -k AGT
h -t 1.868660169 -s 0 -d -1 -p tcp -e 1540 -c 2 -a 0 -i 27 -k AGT
+ -t 1.868660169 -s 0 -d -1 -p AODV -e 48 -c 2 -a 0 -i 0 -k RTR 
- -t 1.868660169 -s 0 -d -1 -p AODV -e 48 -c 2 -a 0 -i 0 -k RTR
h -t 1.868660169 -s 0 -d -1 -p AODV -e 48 -c 2 -a 0 -i 0 -k RTR
r -t 1.869788757 -s 2 -d -1 -p AODV -e 48 -c 2 -a 0 -i 0 -k RTR
r -t 1.869788984 -s 9 -d -1 -p AODV -e 48 -c 2 -a 0 -i 0 -k RTR
+ -t 1.870433647 -s 2 -d -1 -p AODV -e 48 -c 2 -a 0 -i 0 -k RTR 
- -t 1.870433647 -s 2 -d -1 -p AODV -e 48 -c 2 -a 0 -i 0 -k RTR
h -t 1.870433647 -s 2 -d -1 -p AODV -e 48 -c 2 -a 0 -i 0 -k RTR
+ -t 1.871555832 -s 9 -d -1 -p AODV -e 48 -c 2 -a 0 -i 0 -k RTR 
- -t 1.871555832 -s 9 -d -1 -p AODV -e 48 -c 2 -a 0 -i 0 -k RTR
h -t 1.871555832 -s 9 -d -1 -p AODV -e 48 -c 2 -a 0 -i 0 -k RTR
r -t 1.871621973 -s 9 -d -1 -p AODV -e 48 -c 2 -a 0 -i 0 -k RTR
r -t 1.871622235 -s 0 -d -1 -p AODV -e 48 -c 2 -a 0 -i 0 -k RTR
r -t 1.871622369 -s 6 -d -1 -p AODV -e 48 -c 2 -a 0 -i 0 -k RTR
r -t 1.872520298 -s 2 -d -1 -p AODV -e 48 -c 2 -a 0 -i 0 -k RTR
r -t 1.872520558 -s 1 -d -1 -p AODV -e 48 -c 2 -a 0 -i 0 -k RTR
r -t 1.872520559 -s 6 -d -1 -p AODV -e 48 -c 2 -a 0 -i 0 -k RTR
r -t 1.872520788 -s 0 -d -1 -p AODV -e 48 -c 2 -a 0 -i 0 -k RTR
+ -t 1.878684451 -s 6 -d -1 -p AODV -e 48 -c 2 -a 0 -i 0 -k RTR 
- -t 1.878684451 -s 6 -d -1 -p AODV -e 48 -c 2 -a 0 -i 0 -k RTR
h -t 1.878684451 -s 6 -d -1 -p AODV -e 48 -c 2 -a 0 -i 0 -k RTR
r -t 1.880212758 -s 4 -d -1 -p AODV -e 48 -c 2 -a 0 -i 0 -k RTR
+ -t 1.880212758 -s 4 -d 6 -p AODV -e 44 -c 2 -a 0 -i 0 -k RTR 
- -t 1.880212758 -s 4 -d 6 -p AODV -e 44 -c 2 -a 0 -i 0 -k RTR
h -t 1.880212758 -s 4 -d 6 -p AODV -e 44 -c 2 -a 0 -i 0 -k RTR
r -t 1.880212771 -s 1 -d -1 -p AODV -e 48 -c 2 -a 0 -i 0 -k RTR
r -t 1.880213037 -s 9 -d -1 -p AODV -e 48 -c 2 -a 0 -i 0 -k RTR
r -t 1.880213173 -s 2 -d -1 -p AODV -e 48 -c 2 -a 0 -i 0 -k RTR
r -t 1.880213217 -s 3 -d -1 -p AODV -e 48 -c 2 -a 0 -i 0 -k RTR
+ -t 1.880822971 -s 1 -d -1 -p AODV -e 48 -c 2 -a 0 -i 0 -k RTR 
- -t 1.880822971 -s 1 -d -1 -p AODV -e 48 -c 2 -a 0 -i 0 -k RTR
h -t 1.880822971 -s 1 -d -1 -p AODV -e 48 -c 2 -a 0 -i 0 -k RTR
r -t 1.884268802 -s 6 -d -1 -p AODV -e 48 -c 2 -a 0 -i 0 -k RTR
r -t 1.884268977 -s 4 -d -1 -p AODV -e 48 -c 2 -a 0 -i 0 -k RTR
r -t 1.884269068 -s 9 -d -1 -p AODV -e 48 -c 2 -a 0 -i 0 -k RTR
+ -t 1.885911899 -s 6 -d 2 -p AODV -e 44 -c 2 -a 0 -i 0 -k RTR 
- -t 1.885911899 -s 6 -d 2 -p AODV -e 44 -c 2 -a 0 -i 0 -k RTR
h -t 1.885911899 -s 6 -d 2 -p AODV -e 44 -c 2 -a 0 -i 0 -k RTR
+ -t 1.888090065 -s 2 -d 0 -p AODV -e 44 -c 2 -a 0 -i 0 -k RTR 
- -t 1.888090065 -s 2 -d 0 -p AODV -e 44 -c 2 -a 0 -i 0 -k RTR
h -t 1.888090065 -s 2 -d 0 -p AODV -e 44 -c 2 -a 0 -i 0 -k RTR
+ -t 1.888153596 -s 3 -d -1 -p AODV -e 48 -c 2 -a 0 -i 0 -k RTR 
- -t 1.888153596 -s 3 -d -1 -p AODV -e 48 -c 2 -a 0 -i 0 -k RTR
h -t 1.888153596 -s 3 -d -1 -p AODV -e 48 -c 2 -a 0 -i 0 -k RTR
+ -t 1.889947828 -s 0 -d 2 -p tcp -e 1540 -c 2 -a 0 -i 27 -k RTR 
- -t 1.889947828 -s 0 -d 2 -p tcp -e 1540 -c 2 -a 0 -i 27 -k RTR
h -t 1.889947828 -s 0 -d 2 -p tcp -e 1540 -c 2 -a 0 -i 27 -k RTR
+ -t 1.905573591 -s 2 -d 6 -p tcp -e 1540 -c 2 -a 0 -i 27 -k RTR 
- -t 1.905573591 -s 2 -d 6 -p tcp -e 1540 -c 2 -a 0 -i 27 -k RTR
h -t 1.905573591 -s 2 -d 6 -p tcp -e 1540 -c 2 -a 0 -i 27 -k RTR
+ -t 1.922508645 -s 6 -d 4 -p tcp -e 1540 -c 2 -a 0 -i 27 -k RTR 
- -t 1.922508645 -s 6 -d 4 -p tcp -e 1540 -c 2 -a 0 -i 27 -k RTR
h -t 1.922508645 -s 6 -d 4 -p tcp -e 1540 -c 2 -a 0 -i 27 -k RTR
r -t 1.936813569 -s 4 -d 4 -p tcp -e 1540 -c 2 -a 0 -i 27 -k AGT
+ -t 1.936813569 -s 4 -d -1 -p ack -e 40 -c 2 -a 0 -i 28 -k AGT 
- -t 1.936813569 -s 4 -d -1 -p ack -e 40 -c 2 -a 0 -i 28 -k AGT
h -t 1.936813569 -s 4 -d -1 -p ack -e 40 -c 2 -a 0 -i 28 -k AGT
+ -t 1.936813569 -s 4 -d 6 -p ack -e 40 -c 2 -a 0 -i 28 -k RTR 
- -t 1.936813569 -s 4 -d 6 -p ack -e 40 -c 2 -a 0 -i 28 -k RTR
h -t 1.936813569 -s 4 -d 6 -p ack -e 40 -c 2 -a 0 -i 28 -k RTR
+ -t 1.938678494 -s 6 -d 2 -p ack -e 40 -c 2 -a 0 -i 28 -k RTR 
- -t 1.938678494 -s 6 -d 2 -p ack -e 40 -c 2 -a 0 -i 28 -k RTR
h -t 1.938678494 -s 6 -d 2 -p ack -e 40 -c 2 -a 0 -i 28 -k RTR
+ -t 1.940944660 -s 2 -d 0 -p ack -e 40 -c 2 -a 0 -i 28 -k RTR 
- -t 1.940944660 -s 2 -d 0 -p ack -e 40 -c 2 -a 0 -i 28 -k RTR
h -t 1.940944660 -s 2 -d 0 -p ack -e 40 -c 2 -a 0 -i 28 -k RTR
r -t 1.942770423 -s 0 -d 0 -p ack -e 40 -c 2 -a 0 -i 28 -k AGT