M 1.00000 0 (526.00, 602.00, 0.00), (368.00, 651.00), 7.00
M 1.00000 1 (499.00, 186.00, 0.00), (118.00, 905.00), 0.00
M 1.00000 2 (552.00, 428.00, 0.00), (869.00, 643.00), 7.00
M 1.00000 3 (723.00, 21.00, 0.00), (16.00, 604.00), 9.00
M 1.00000 4 (640.00, 141.00, 0.00), (648.00, 101.00), 1.00
M 1.00000 5 (88.00, 772.00, 0.00), (363.00, 17.00), 9.00
M 1.00000 6 (591.00, 214.00, 0.00), (371.00, 796.00), 4.00
M 1.00000 7 (141.00, 296.00, 0.00), (905.00, 556.00), 6.00
M 1.00000 8 (200.00, 377.00, 0.00), (917.00, 201.00), 6.00
M 1.00000 9 (490.00, 359.00, 0.00), (413.00, 535.00), 3.00
s 1.000000000 _0_ AGT  --- 0 tcp 40 [0 0 0 0] ------- [0:0 4:0 32 0] [0 0] 0 0
r 1.000000000 _0_ RTR  --- 0 tcp 40 [0 0 0 0] ------- [0:0 4:0 32 0] [0 0] 0 0
s 1.000000000 _0_ RTR  --- 0 AODV 48 [0 0 0 0] ------- [0:255 -1:255 30 0] [0x2 1 1 [4 0] [0 4]] (REQUEST)
r 1.000988586 _2_ RTR  --- 0 AODV 48 [0 ffffffff 0 800] ------- [0:255 -1:255 30 0] [0x2 1 1 [4 0] [0 4]] (REQUEST)
r 1.000988819 _9_ RTR  --- 0 AODV 48 [0 ffffffff 0 800] ------- [0:255 -1:255 30 0] [0x2 1 1 [4 0] [0 4]] (REQUEST)
s 1.001869813 _2_ RTR  --- 0 AODV 48 [0 ffffffff 0 800] ------- [2:255 -1:255 29 0] [0x2 2 1 [4 0] [0 4]] (REQUEST)
r 1.002818122 _9_ RTR  --- 0 AODV 48 [0 ffffffff 2 800] ------- [2:255 -1:255 29 0] [0x2 2 1 [4 0] [0 4]] (REQUEST)
r 1.002818400 _0_ RTR  --- 0 AODV 48 [0 ffffffff 2 800] ------- [2:255 -1:255 29 0] [0x2 2 1 [4 0] [0 4]] (REQUEST)
r 1.002818538 _6_ RTR  --- 0 AODV 48 [0 ffffffff 2 800] ------- [2:255 -1:255 29 0] [0x2 2 1 [4 0] [0 4]] (REQUEST)
r 1.002818639 _1_ RTR  --- 0 AODV 48 [0 ffffffff 2 800] ------- [2:255 -1:255 29 0] [0x2 2 1 [4 0] [0 4]] (REQUEST)
s 1.005164656 _1_ RTR  --- 0 AODV 48 [0 ffffffff 2 800] ------- [1:255 -1:255 28 0] [0x2 3 1 [4 0] [0 4]] (REQUEST)
s 1.005400553 _9_ RTR  --- 0 AODV 48 [0 ffffffff 0 800] ------- [9:255 -1:255 29 0] [0x2 2 1 [4 0] [0 4]] (REQUEST)
r 1.006472977 _6_ RTR  --- 0 AODV 48 [0 ffffffff 1 800] ------- [1:255 -1:255 28 0] [0x2 3 1 [4 0] [0 4]] (REQUEST)
r 1.006473150 _4_ RTR  --- 0 AODV 48 [0 ffffffff 1 800] ------- [1:255 -1:255 28 0] [0x2 3 1 [4 0] [0 4]] (REQUEST)
s 1.006473150 _4_ RTR  --- 0 AODV 44 [0 0 0 0] ------- [4:255 0:255 30 1] [0x4 1 [4 4] 10.000000] (REPLY)
r 1.006473234 _9_ RTR  --- 0 AODV 48 [0 ffffffff 1 800] ------- [1:255 -1:255 28 0] [0x2 3 1 [4 0] [0 4]] (REQUEST)
r 1.006473482 _2_ RTR  --- 0 AODV 48 [0 ffffffff 1 800] ------- [1:255 -1:255 28 0] [0x2 3 1 [4 0] [0 4]] (REQUEST)
s 1.010983299 _6_ RTR  --- 0 AODV 48 [0 ffffffff 2 800] ------- [6:255 -1:255 28 0] [0x2 3 1 [4 0] [0 4]] (REQUEST)
r 1.011094603 _1_ RTR  --- 0 AODV 44 [13a 1 4 800] ------- [4:255 0:255 30 1] [0x4 1 [4 4] 10.000000] (REPLY)
f 1.011094603 _1_ RTR  --- 0 AODV 44 [13a 1 4 800] ------- [4:255 0:255 29 2] [0x4 2 [4 4] 10.000000] (REPLY)
r 1.012437302 _2_ RTR  --- 0 AODV 48 [0 ffffffff 9 800] ------- [9:255 -1:255 29 0] [0x2 2 1 [4 0] [0 4]] (REQUEST)
r 1.012437570 _1_ RTR  --- 0 AODV 48 [0 ffffffff 9 800] ------- [9:255 -1:255 29 0] [0x2 2 1 [4 0] [0 4]] (REQUEST)
r 1.012437581 _6_ RTR  --- 0 AODV 48 [0 ffffffff 9 800] ------- [9:255 -1:255 29 0] [0x2 2 1 [4 0] [0 4]] (REQUEST)
r 1.012437811 _0_ RTR  --- 0 AODV 48 [0 ffffffff 9 800] ------- [9:255 -1:255 29 0] [0x2 2 1 [4 0] [0 4]] (REQUEST)
r 1.014314184 _4_ RTR  --- 0 AODV 48 [0 ffffffff 6 800] ------- [6:255 -1:255 28 0] [0x2 3 1 [4 0] [0 4]] (REQUEST)
r 1.014314211 _1_ RTR  --- 0 AODV 48 [0 ffffffff 6 800] ------- [6:255 -1:255 28 0] [0x2 3 1 [4 0] [0 4]] (REQUEST)
r 1.014314479 _9_ RTR  --- 0 AODV 48 [0 ffffffff 6 800] ------- [6:255 -1:255 28 0] [0x2 3 1 [4 0] [0 4]] (REQUEST)
r 1.014314615 _2_ RTR  --- 0 AODV 48 [0 ffffffff 6 800] ------- [6:255 -1:255 28 0] [0x2 3 1 [4 0] [0 4]] (REQUEST)
r 1.014314670 _3_ RTR  --- 0 AODV 48 [0 ffffffff 6 800] ------- [6:255 -1:255 28 0] [0x2 3 1 [4 0] [0 4]] (REQUEST)
s 1.016895549 _3_ RTR  --- 0 AODV 48 [0 ffffffff 6 800] ------- [3:255 -1:255 27 0] [0x2 4 1 [4 0] [0 4]] (REQUEST)
r 1.017829572 _2_ RTR  --- 0 AODV 44 [13a 2 1 800] ------- [4:255 0:255 29 2] [0x4 2 [4 4] 10.000000] (REPLY)
f 1.017829572 _2_ RTR  --- 0 AODV 44 [13a 2 1 800] ------- [4:255 0:255 28 0] [0x4 3 [4 4] 10.000000] (REPLY)
r 1.023616446 _0_ RTR  --- 0 AODV 44 [13a 0 2 800] ------- [4:255 0:255 28 0] [0x4 3 [4 4] 10.000000] (REPLY)
s 1.023616446 _0_ RTR  --- 0 tcp 40 [0 0 0 0] ------- [0:0 4:0 30 2] [0 0] 0 0
r 1.025482205 _2_ RTR  --- 0 tcp 40 [13a 2 0 800] ------- [0:0 4:0 30 2] [0 0] 1 0
f 1.025482205 _2_ RTR  --- 0 tcp 40 [13a 2 0 800] ------- [0:0 4:0 29 1] [0 0] 1 0
r 1.027568684 _1_ RTR  --- 0 tcp 40 [13a 1 2 800] ------- [0:0 4:0 29 1] [0 0] 2 0
f 1.027568684 _1_ RTR  --- 0 tcp 40 [13a 1 2 800] ------- [0:0 4:0 28 4] [0 0] 2 0
r 1.029534164 _4_ AGT  --- 0 tcp 40 [13a 4 1 800] ------- [0:0 4:0 28 4] [0 0] 3 0
s 1.029534164 _4_ AGT  --- 1 ack 40 [0 0 0 0] ------- [4:0 0:0 32 0] [0 0] 0 0
r 1.029534164 _4_ RTR  --- 1 ack 40 [0 0 0 0] ------- [4:0 0:0 32 0] [0 0] 0 0
s 1.029534164 _4_ RTR  --- 1 ack 40 [0 0 0 0] ------- [4:0 0:0 30 1] [0 0] 0 0
r 1.031639645 _1_ RTR  --- 1 ack 40 [13a 1 4 800] ------- [4:0 0:0 30 1] [0 0] 1 0
f 1.031639645 _1_ RTR  --- 1 ack 40 [13a 1 4 800] ------- [4:0 0:0 29 2] [0 0] 1 0
r 1.033566124 _2_ RTR  --- 1 ack 40 [13a 2 1 800] ------- [4:0 0:0 29 2] [0 0] 2 0
f 1.033566124 _2_ RTR  --- 1 ack 40 [13a 2 1 800] ------- [4:0 0:0 28 0] [0 0] 2 0
r 1.035611883 _0_ AGT  --- 1 ack 40 [13a 0 2 800] ------- [4:0 0:0 28 0] [0 0] 3 0
s 1.035611883 _0_ AGT  --- 2 tcp 1540 [0 0 0 0] ------- [0:0 4:0 32 0] [1 0] 0 0
r 1.035611883 _0_ RTR  --- 2 tcp 1540 [0 0 0 0] ------- [0:0 4:0 32 0] [1 0] 0 0
s 1.035611883 _0_ AGT  --- 3 tcp 1540 [0 0 0 0] ------- [0:0 4:0 32 0] [2 0] 0 0
r 1.035611883 _0_ RTR  --- 3 tcp 1540 [0 0 0 0] ------- [0:0 4:0 32 0] [2 0] 0 0
s 1.035611883 _0_ RTR  --- 2 tcp 1540 [0 0 0 0] ------- [0:0 4:0 30 2] [1 0] 0 0
s 1.035611883 _0_ RTR  --- 3 tcp 1540 [0 0 0 0] ------- [0:0 4:0 30 2] [2 0] 0 0
r 1.050017642 _2_ RTR  --- 2 tcp 1540 [13a 2 0 800] ------- [0:0 4:0 30 2] [1 0] 1 0
f 1.050017642 _2_ RTR  --- 2 tcp 1540 [13a 2 0 800] ------- [0:0 4:0 29 1] [1 0] 1 0
r 1.063964122 _1_ RTR  --- 2 tcp 1540 [13a 1 2 800] ------- [0:0 4:0 29 1] [1 0] 2 0
f 1.063964122 _1_ RTR  --- 2 tcp 1540 [13a 1 2 800] ------- [0:0 4:0 28 4] [1 0] 2 0
r 1.078289603 _4_ AGT  --- 2 tcp 1540 [13a 4 1 800] ------- [0:0 4:0 28 4] [1 0] 3 0
s 1.078289603 _4_ AGT  --- 4 ack 40 [0 0 0 0] ------- [4:0 0:0 32 0] [1 0] 0 0
r 1.078289603 _4_ RTR  --- 4 ack 40 [0 0 0 0] ------- [4:0 0:0 32 0] [1 0] 0 0
s 1.078289603 _4_ RTR  --- 4 ack 40 [0 0 0 0] ------- [4:0 0:0 30 1] [1 0] 0 0
r 1.080295083 _1_ RTR  --- 4 ack 40 [13a 1 4 800] ------- [4:0 0:0 30 1] [1 0] 1 0
f 1.080295083 _1_ RTR  --- 4 ack 40 [13a 1 4 800] ------- [4:0 0:0 29 2] [1 0] 1 0
r 1.082221564 _2_ RTR  --- 4 ack 40 [13a 2 1 800] ------- [4:0 0:0 29 2] [1 0] 2 0
f 1.082221564 _2_ RTR  --- 4 ack 40 [13a 2 1 800] ------- [4:0 0:0 28 0] [1 0] 2 0
r 1.084047324 _0_ AGT  --- 4 ack 40 [13a 0 2 800] ------- [4:0 0:0 28 0] [1 0] 3 0
s 1.084047324 _0_ AGT  --- 5 tcp 1540 [0 0 0 0] ------- [0:0 4:0 32 0] [3 0] 0 0
r 1.084047324 _0_ RTR  --- 5 tcp 1540 [0 0 0 0] ------- [0:0 4:0 32 0] [3 0] 0 0
s 1.084047324 _0_ AGT  --- 6 tcp 1540 [0 0 0 0] ------- [0:0 4:0 32 0] [4 0] 0 0
r 1.084047324 _0_ RTR  --- 6 tcp 1540 [0 0 0 0] ------- [0:0 4:0 32 0] [4 0] 0 0
s 1.084047324 _0_ RTR  --- 5 tcp 1540 [0 0 0 0] ------- [0:0 4:0 30 2] [3 0] 0 0
s 1.084047324 _0_ RTR  --- 6 tcp 1540 [0 0 0 0] ------- [0:0 4:0 30 2] [4 0] 0 0
r 1.097973083 _2_ RTR  --- 3 tcp 1540 [13a 2 0 800] ------- [0:0 4:0 30 2] [2 0] 1 0
f 1.097973083 _2_ RTR  --- 3 tcp 1540 [13a 2 0 800] ------- [0:0 4:0 29 1] [2 0] 1 0
r 1.111959429 _2_ RTR  --- 5 tcp 1540 [13a 2 0 800] ------- [0:0 4:0 30 2] [3 0] 1 0
f 1.111959429 _2_ RTR  --- 5 tcp 1540 [13a 2 0 800] ------- [0:0 4:0 29 1] [3 0] 1 0
r 1.125845912 _1_ RTR  --- 3 tcp 1540 [13a 1 2 800] ------- [0:0 4:0 29 1] [2 0] 2 0
f 1.125845912 _1_ RTR  --- 3 tcp 1540 [13a 1 2 800] ------- [0:0 4:0 28 4] [2 0] 2 0
r 1.139753224 _1_ RTR  --- 5 tcp 1540 [13a 1 2 800] ------- [0:0 4:0 29 1] [3 0] 2 0
f 1.139753224 _1_ RTR  --- 5 tcp 1540 [13a 1 2 800] ------- [0:0 4:0 28 4] [3 0] 2 0
r 1.153618705 _4_ AGT  --- 3 tcp 1540 [13a 4 1 800] ------- [0:0 4:0 28 4] [2 0] 3 0
s 1.153618705 _4_ AGT  --- 7 ack 40 [0 0 0 0] ------- [4:0 0:0 32 0] [2 0] 0 0
r 1.153618705 _4_ RTR  --- 7 ack 40 [0 0 0 0] ------- [4:0 0:0 32 0] [2 0] 0 0
s 1.153618705 _4_ RTR  --- 7 ack 40 [0 0 0 0] ------- [4:0 0:0 30 1] [2 0] 0 0
r 1.167444679 _4_ AGT  --- 5 tcp 1540 [13a 4 1 800] ------- [0:0 4:0 28 4] [3 0] 3 0
s 1.167444679 _4_ AGT  --- 8 ack 40 [0 0 0 0] ------- [4:0 0:0 32 0] [3 0] 0 0
r 1.167444679 _4_ RTR  --- 8 ack 40 [0 0 0 0] ------- [4:0 0:0 32 0] [3 0] 0 0
s 1.167444679 _4_ RTR  --- 8 ack 40 [0 0 0 0] ------- [4:0 0:0 30 1] [3 0] 0 0
r 1.169630160 _1_ RTR  --- 7 ack 40 [13a 1 4 800] ------- [4:0 0:0 30 1] [2 0] 1 0
f 1.169630160 _1_ RTR  --- 7 ack 40 [13a 1 4 800] ------- [4:0 0:0 29 2] [2 0] 1 0
r 1.171736134 _1_ RTR  --- 8 ack 40 [13a 1 4 800] ------- [4:0 0:0 30 1] [3 0] 1 0
f 1.171736134 _1_ RTR  --- 8 ack 40 [13a 1 4 800] ------- [4:0 0:0 29 2] [3 0] 1 0
r 1.173582621 _2_ RTR  --- 7 ack 40 [13a 2 1 800] ------- [4:0 0:0 29 2] [2 0] 2 0
f 1.173582621 _2_ RTR  --- 7 ack 40 [13a 2 1 800] ------- [4:0 0:0 28 0] [2 0] 2 0
r 1.175448380 _0_ AGT  --- 7 ack 40 [13a 0 2 800] ------- [4:0 0:0 28 0] [2 0] 3 0
s 1.175448380 _0_ AGT  --- 9 tcp 1540 [0 0 0 0] ------- [0:0 4:0 32 0] [5 0] 0 0
r 1.175448380 _0_ RTR  --- 9 tcp 1540 [0 0 0 0] ------- [0:0 4:0 32 0] [5 0] 0 0
s 1.175448380 _0_ AGT  --- 10 tcp 1540 [0 0 0 0] ------- [0:0 4:0 32 0] [6 0] 0 0
r 1.175448380 _0_ RTR  --- 10 tcp 1540 [0 0 0 0] ------- [0:0 4:0 32 0] [6 0] 0 0
s 1.175448380 _0_ RTR  --- 9 tcp 1540 [0 0 0 0] ------- [0:0 4:0 30 2] [5 0] 0 0
s 1.175448380 _0_ RTR  --- 10 tcp 1540 [0 0 0 0] ------- [0:0 4:0 30 2] [6 0] 0 0
r 1.189434139 _2_ RTR  --- 6 tcp 1540 [13a 2 0 800] ------- [0:0 4:0 30 2] [4 0] 1 0
f 1.189434139 _2_ RTR  --- 6 tcp 1540 [13a 2 0 800] ------- [0:0 4:0 29 1] [4 0] 1 0
r 1.203340627 _1_ RTR  --- 6 tcp 1540 [13a 1 2 800] ------- [0:0 4:0 29 1] [4 0] 2 0
f 1.203340627 _1_ RTR  --- 6 tcp 1540 [13a 1 2 800] ------- [0:0 4:0 28 4] [4 0] 2 0
r 1.217571777 _2_ RTR  --- 9 tcp 1540 [13a 2 0 800] ------- [0:0 4:0 30 2] [5 0] 1 0
f 1.217571777 _2_ RTR  --- 9 tcp 1540 [13a 2 0 800] ------- [0:0 4:0 29 1] [5 0] 1 0
r 1.231438265 _1_ RTR  --- 9 tcp 1540 [13a 1 2 800] ------- [0:0 4:0 29 1] [5 0] 2 0
f 1.231438265 _1_ RTR  --- 9 tcp 1540 [13a 1 2 800] ------- [0:0 4:0 28 4] [5 0] 2 0
r 1.233284754 _2_ RTR  --- 8 ack 40 [13a 2 1 800] ------- [4:0 0:0 29 2] [3 0] 2 0
f 1.233284754 _2_ RTR  --- 8 ack 40 [13a 2 1 800] ------- [4:0 0:0 28 0] [3 0] 2 0
r 1.235210514 _0_ AGT  --- 8 ack 40 [13a 0 2 800] ------- [4:0 0:0 28 0] [3 0] 3 0
s 1.235210514 _0_ AGT  --- 11 tcp 1540 [0 0 0 0] ------- [0:0 4:0 32 0] [7 0] 0 0
r 1.235210514 _0_ RTR  --- 11 tcp 1540 [0 0 0 0] ------- [0:0 4:0 32 0] [7 0] 0 0
s 1.235210514 _0_ AGT  --- 12 tcp 1540 [0 0 0 0] ------- [0:0 4:0 32 0] [8 0] 0 0
r 1.235210514 _0_ RTR  --- 12 tcp 1540 [0 0 0 0] ------- [0:0 4:0 32 0] [8 0] 0 0
s 1.235210514 _0_ RTR  --- 11 tcp 1540 [0 0 0 0] ------- [0:0 4:0 30 2] [7 0] 0 0
s 1.235210514 _0_ RTR  --- 12 tcp 1540 [0 0 0 0] ------- [0:0 4:0 30 2] [8 0] 0 0
r 1.249416274 _2_ RTR  --- 10 tcp 1540 [13a 2 0 800] ------- [0:0 4:0 30 2] [6 0] 1 0
f 1.249416274 _2_ RTR  --- 10 tcp 1540 [13a 2 0 800] ------- [0:0 4:0 29 1] [6 0] 1 0
r 1.263322764 _1_ RTR  --- 10 tcp 1540 [13a 1 2 800] ------- [0:0 4:0 29 1] [6 0] 2 0
f 1.263322764 _1_ RTR  --- 10 tcp 1540 [13a 1 2 800] ------- [0:0 4:0 28 4] [6 0] 2 0
r 1.277228245 _4_ AGT  --- 6 tcp 1540 [13a 4 1 800] ------- [0:0 4:0 28 4] [4 0] 3 0
s 1.277228245 _4_ AGT  --- 13 ack 40 [0 0 0 0] ------- [4:0 0:0 32 0] [4 0] 0 0
r 1.277228245 _4_ RTR  --- 13 ack 40 [0 0 0 0] ------- [4:0 0:0 32 0] [4 0] 0 0
s 1.277228245 _4_ RTR  --- 13 ack 40 [0 0 0 0] ------- [4:0 0:0 30 1] [4 0] 0 0
r 1.279113726 _1_ RTR  --- 13 ack 40 [13a 1 4 800] ------- [4:0 0:0 30 1] [4 0] 1 0
f 1.279113726 _1_ RTR  --- 13 ack 40 [13a 1 4 800] ------- [4:0 0:0 29 2] [4 0] 1 0
r 1.293219208 _4_ AGT  --- 9 tcp 1540 [13a 4 1 800] ------- [0:0 4:0 28 4] [5 0] 3 0
s 1.293219208 _4_ AGT  --- 14 ack 40 [0 0 0 0] ------- [4:0 0:0 32 0] [5 0] 0 0
r 1.293219208 _4_ RTR  --- 14 ack 40 [0 0 0 0] ------- [4:0 0:0 32 0] [5 0] 0 0
s 1.293219208 _4_ RTR  --- 14 ack 40 [0 0 0 0] ------- [4:0 0:0 30 1] [5 0] 0 0
r 1.307165183 _4_ AGT  --- 10 tcp 1540 [13a 4 1 800] ------- [0:0 4:0 28 4] [6 0] 3 0
s 1.307165183 _4_ AGT  --- 15 ack 40 [0 0 0 0] ------- [4:0 0:0 32 0] [6 0] 0 0
r 1.307165183 _4_ RTR  --- 15 ack 40 [0 0 0 0] ------- [4:0 0:0 32 0] [6 0] 0 0
s 1.307165183 _4_ RTR  --- 15 ack 40 [0 0 0 0] ------- [4:0 0:0 30 1] [6 0] 0 0
r 1.309052170 _2_ RTR  --- 13 ack 40 [13a 2 1 800] ------- [4:0 0:0 29 2] [4 0] 2 0
f 1.309052170 _2_ RTR  --- 13 ack 40 [13a 2 1 800] ------- [4:0 0:0 28 0] [4 0] 2 0
r 1.323108490 _2_ RTR  --- 11 tcp 1540 [13a 2 0 800] ------- [0:0 4:0 30 2] [7 0] 1 0
f 1.323108490 _2_ RTR  --- 11 tcp 1540 [13a 2 0 800] ------- [0:0 4:0 29 1] [7 0] 1 0
r 1.325294250 _0_ AGT  --- 13 ack 40 [13a 0 2 800] ------- [4:0 0:0 28 0] [4 0] 3 0
s 1.325294250 _0_ AGT  --- 16 tcp 1540 [0 0 0 0] ------- [0:0 4:0 32 0] [9 0] 0 0
r 1.325294250 _0_ RTR  --- 16 tcp 1540 [0 0 0 0] ------- [0:0 4:0 32 0] [9 0] 0 0
s 1.325294250 _0_ AGT  --- 17 tcp 1540 [0 0 0 0] ------- [0:0 4:0 32 0] [10 0] 0 0
r 1.325294250 _0_ RTR  --- 17 tcp 1540 [0 0 0 0] ------- [0:0 4:0 32 0] [10 0] 0 0
s 1.325294250 _0_ RTR  --- 16 tcp 1540 [0 0 0 0] ------- [0:0 4:0 30 2] [9 0] 0 0
s 1.325294250 _0_ RTR  --- 17 tcp 1540 [0 0 0 0] ------- [0:0 4:0 30 2] [10 0] 0 0
r 1.339360010 _2_ RTR  --- 12 tcp 1540 [13a 2 0 800] ------- [0:0 4:0 30 2] [8 0] 1 0
f 1.339360010 _2_ RTR  --- 12 tcp 1540 [13a 2 0 800] ------- [0:0 4:0 29 1] [8 0] 1 0
r 1.353386504 _1_ RTR  --- 11 tcp 1540 [13a 1 2 800] ------- [0:0 4:0 29 1] [7 0] 2 0
f 1.353386504 _1_ RTR  --- 11 tcp 1540 [13a 1 2 800] ------- [0:0 4:0 28 4] [7 0] 2 0
r 1.355402159 _1_ RTR  --- 14 ack 40 [13a 1 4 800] ------- [4:0 0:0 30 1] [5 0] 1 0
f 1.355402159 _1_ RTR  --- 14 ack 40 [13a 1 4 800] ------- [4:0 0:0 29 2] [5 0] 1 0
r 1.369347641 _4_ AGT  --- 11 tcp 1540 [13a 4 1 800] ------- [0:0 4:0 28 4] [7 0] 3 0
s 1.369347641 _4_ AGT  --- 18 ack 40 [0 0 0 0] ------- [4:0 0:0 32 0] [7 0] 0 0
r 1.369347641 _4_ RTR  --- 18 ack 40 [0 0 0 0] ------- [4:0 0:0 32 0] [7 0] 0 0
s 1.369347641 _4_ RTR  --- 18 ack 40 [0 0 0 0] ------- [4:0 0:0 30 1] [7 0] 0 0
r 1.371353122 _1_ RTR  --- 15 ack 40 [13a 1 4 800] ------- [4:0 0:0 30 1] [6 0] 1 0
f 1.371353122 _1_ RTR  --- 15 ack 40 [13a 1 4 800] ------- [4:0 0:0 29 2] [6 0] 1 0
r 1.373219098 _1_ RTR  --- 18 ack 40 [13a 1 4 800] ------- [4:0 0:0 30 1] [7 0] 1 0
f 1.373219098 _1_ RTR  --- 18 ack 40 [13a 1 4 800] ------- [4:0 0:0 29 2] [7 0] 1 0
r 1.387156105 _1_ RTR  --- 12 tcp 1540 [13a 1 2 800] ------- [0:0 4:0 29 1] [8 0] 2 0
f 1.387156105 _1_ RTR  --- 12 tcp 1540 [13a 1 2 800] ------- [0:0 4:0 28 4] [8 0] 2 0
r 1.389002602 _2_ RTR  --- 14 ack 40 [13a 2 1 800] ------- [4:0 0:0 29 2] [5 0] 2 0
f 1.389002602 _2_ RTR  --- 14 ack 40 [13a 2 1 800] ------- [4:0 0:0 28 0] [5 0] 2 0
r 1.391009932 _2_ RTR  --- 15 ack 40 [13a 2 1 800] ------- [4:0 0:0 29 2] [6 0] 2 0
f 1.391009932 _2_ RTR  --- 15 ack 40 [13a 2 1 800] ------- [4:0 0:0 28 0] [6 0] 2 0
r 1.392855692 _0_ AGT  --- 14 ack 40 [13a 0 2 800] ------- [4:0 0:0 28 0] [5 0] 3 0
s 1.392855692 _0_ AGT  --- 19 tcp 1540 [0 0 0 0] ------- [0:0 4:0 32 0] [11 0] 0 0
r 1.392855692 _0_ RTR  --- 19 tcp 1540 [0 0 0 0] ------- [0:0 4:0 32 0] [11 0] 0 0
s 1.392855692 _0_ AGT  --- 20 tcp 1540 [0 0 0 0] ------- [0:0 4:0 32 0] [12 0] 0 0
r 1.392855692 _0_ RTR  --- 20 tcp 1540 [0 0 0 0] ------- [0:0 4:0 32 0] [12 0] 0 0
s 1.392855692 _0_ RTR  --- 19 tcp 1540 [0 0 0 0] ------- [0:0 4:0 30 2] [11 0] 0 0
s 1.392855692 _0_ RTR  --- 20 tcp 1540 [0 0 0 0] ------- [0:0 4:0 30 2] [12 0] 0 0
r 1.406901452 _2_ RTR  --- 16 tcp 1540 [13a 2 0 800] ------- [0:0 4:0 30 2] [9 0] 1 0
f 1.406901452 _2_ RTR  --- 16 tcp 1540 [13a 2 0 800] ------- [0:0 4:0 29 1] [9 0] 1 0
r 1.408918755 _2_ RTR  --- 18 ack 40 [13a 2 1 800] ------- [4:0 0:0 29 2] [7 0] 2 0
f 1.408918755 _2_ RTR  --- 18 ack 40 [13a 2 1 800] ------- [4:0 0:0 28 0] [7 0] 2 0
r 1.410784515 _0_ AGT  --- 15 ack 40 [13a 0 2 800] ------- [4:0 0:0 28 0] [6 0] 3 0
s 1.410784515 _0_ AGT  --- 21 tcp 1540 [0 0 0 0] ------- [0:0 4:0 32 0] [13 0] 0 0
r 1.410784515 _0_ RTR  --- 21 tcp 1540 [0 0 0 0] ------- [0:0 4:0 32 0] [13 0] 0 0
s 1.410784515 _0_ AGT  --- 22 tcp 1540 [0 0 0 0] ------- [0:0 4:0 32 0] [14 0] 0 0
r 1.410784515 _0_ RTR  --- 22 tcp 1540 [0 0 0 0] ------- [0:0 4:0 32 0] [14 0] 0 0
s 1.410784515 _0_ RTR  --- 21 tcp 1540 [0 0 0 0] ------- [0:0 4:0 30 2] [13 0] 0 0
s 1.410784515 _0_ RTR  --- 22 tcp 1540 [0 0 0 0] ------- [0:0 4:0 30 2] [14 0] 0 0
r 1.424771600 _1_ RTR  --- 16 tcp 1540 [13a 1 2 800] ------- [0:0 4:0 29 1] [9 0] 2 0
f 1.424771600 _1_ RTR  --- 16 tcp 1540 [13a 1 2 800] ------- [0:0 4:0 28 4] [9 0] 2 0
r 1.438677083 _4_ AGT  --- 12 tcp 1540 [13a 4 1 800] ------- [0:0 4:0 28 4] [8 0] 3 0
s 1.438677083 _4_ AGT  --- 23 ack 40 [0 0 0 0] ------- [4:0 0:0 32 0] [8 0] 0 0
r 1.438677083 _4_ RTR  --- 23 ack 40 [0 0 0 0] ------- [4:0 0:0 32 0] [8 0] 0 0
s 1.438677083 _4_ RTR  --- 23 ack 40 [0 0 0 0] ------- [4:0 0:0 30 1] [8 0] 0 0
r 1.452503059 _4_ AGT  --- 16 tcp 1540 [13a 4 1 800] ------- [0:0 4:0 28 4] [9 0] 3 0
s 1.452503059 _4_ AGT  --- 24 ack 40 [0 0 0 0] ------- [4:0 0:0 32 0] [9 0] 0 0
r 1.452503059 _4_ RTR  --- 24 ack 40 [0 0 0 0] ------- [4:0 0:0 32 0] [9 0] 0 0
s 1.452503059 _4_ RTR  --- 24 ack 40 [0 0 0 0] ------- [4:0 0:0 30 1] [9 0] 0 0
r 1.466754409 _2_ RTR  --- 17 tcp 1540 [13a 2 0 800] ------- [0:0 4:0 30 2] [10 0] 1 0
f 1.466754409 _2_ RTR  --- 17 tcp 1540 [13a 2 0 800] ------- [0:0 4:0 29 1] [10 0] 1 0
r 1.468660169 _0_ AGT  --- 18 ack 40 [13a 0 2 800] ------- [4:0 0:0 28 0] [7 0] 3 0
s 1.468660169 _0_ AGT  --- 25 tcp 1540 [0 0 0 0] ------- [0:0 4:0 32 0] [15 0] 0 0
r 1.468660169 _0_ RTR  --- 25 tcp 1540 [0 0 0 0] ------- [0:0 4:0 32 0] [15 0] 0 0
s 1.468660169 _0_ AGT  --- 26 tcp 1540 [0 0 0 0] ------- [0:0 4:0 32 0] [16 0] 0 0
r 1.468660169 _0_ RTR  --- 26 tcp 1540 [0 0 0 0] ------- [0:0 4:0 32 0] [16 0] 0 0
s 1.468660169 _0_ RTR  --- 25 tcp 1540 [0 0 0 0] ------- [0:0 4:0 30 2] [15 0] 0 0
s 1.468660169 _0_ RTR  --- 26 tcp 1540 [0 0 0 0] ------- [0:0 4:0 30 2] [16 0] 0 0
r 1.482765930 _2_ RTR  --- 19 tcp 1540 [13a 2 0 800] ------- [0:0 4:0 30 2] [11 0] 1 0
f 1.482765930 _2_ RTR  --- 19 tcp 1540 [13a 2 0 800] ------- [0:0 4:0 29 1] [11 0] 1 0
r 1.485438418 _1_ RTR  --- 23 ack 40 [13a 1 4 800] ------- [4:0 0:0 30 1] [8 0] 1 0
f 1.485438418 _1_ RTR  --- 23 ack 40 [13a 1 4 800] ------- [4:0 0:0 29 2] [8 0] 1 0
r 1.487424394 _1_ RTR  --- 24 ack 40 [13a 1 4 800] ------- [4:0 0:0 30 1] [9 0] 1 0
f 1.487424394 _1_ RTR  --- 24 ack 40 [13a 1 4 800] ------- [4:0 0:0 29 2] [9 0] 1 0
D 1.511981234 _2_ RTR  CBK 17 tcp 1540 [13a 1 2 800] ------- [0:0 4:0 29 1] [10 0] 1 0
D 1.511981234 _2_ RTR  CBK 19 tcp 1540 [13a 1 2 800] ------- [0:0 4:0 29 1] [11 0] 1 0
s 1.511981234 _2_ RTR  --- 0 AODV 32 [0 0 0 0] ------- [2:255 -1:255 1 0] [0x8 1 [4 0] 0.000000] (ERROR)
r 1.513061552 _9_ RTR  --- 0 AODV 32 [0 ffffffff 2 800] ------- [2:255 -1:255 1 0] [0x8 1 [4 0] 0.000000] (ERROR)
r 1.513061820 _0_ RTR  --- 0 AODV 32 [0 ffffffff 2 800] ------- [2:255 -1:255 1 0] [0x8 1 [4 0] 0.000000] (ERROR)
D 1.513061820 _0_ RTR  CBK 21 tcp 1540 [0 2 0 800] ------- [0:0 4:0 30 2] [13 0] 0 0
D 1.513061820 _0_ RTR  CBK 22 tcp 1540 [0 2 0 800] ------- [0:0 4:0 30 2] [14 0] 0 0
D 1.513061820 _0_ RTR  CBK 25 tcp 1540 [0 2 0 800] ------- [0:0 4:0 30 2] [15 0] 0 0
D 1.513061820 _0_ RTR  CBK 26 tcp 1540 [0 2 0 800] ------- [0:0 4:0 30 2] [16 0] 0 0
r 1.513061957 _6_ RTR  --- 0 AODV 32 [0 ffffffff 2 800] ------- [2:255 -1:255 1 0] [0x8 1 [4 0] 0.000000] (ERROR)
r 1.539002581 _2_ RTR  --- 20 tcp 1540 [13a 2 0 800] ------- [0:0 4:0 30 2] [12 0] 1 0
D 1.539002581 _2_ RTR NRTE 20 tcp 1540 [13a 2 0 800] ------- [0:0 4:0 29 2] [12 0] 1 0
s 1.539002581 _2_ RTR  --- 0 AODV 32 [0 0 0 0] ------- [2:255 -1:255 1 0] [0x8 1 [4 0] 0.000000] (ERROR)
r 1.540466900 _9_ RTR  --- 0 AODV 32 [0 ffffffff 2 800] ------- [2:255 -1:255 1 0] [0x8 1 [4 0] 0.000000] (ERROR)
r 1.540467168 _0_ RTR  --- 0 AODV 32 [0 ffffffff 2 800] ------- [2:255 -1:255 1 0] [0x8 1 [4 0] 0.000000] (ERROR)
r 1.540467304 _6_ RTR  --- 0 AODV 32 [0 ffffffff 2 800] ------- [2:255 -1:255 1 0] [0x8 1 [4 0] 0.000000] (ERROR)
D 1.557966416 _1_ RTR  CBK 23 ack 40 [13a 2 1 800] ------- [4:0 0:0 29 2] [8 0] 1 0
D 1.557966416 _1_ RTR  CBK 24 ack 40 [13a 2 1 800] ------- [4:0 0:0 29 2] [9 0] 1 0
s 1.557966416 _1_ RTR  --- 0 AODV 32 [0 0 0 0] ------- [1:255 -1:255 1 0] [0x8 1 [0 0] 0.000000] (ERROR)
r 1.559266736 _6_ RTR  --- 0 AODV 32 [0 ffffffff 1 800] ------- [1:255 -1:255 1 0] [0x8 1 [0 0] 0.000000] (ERROR)
r 1.559266910 _4_ RTR  --- 0 AODV 32 [0 ffffffff 1 800] ------- [1:255 -1:255 1 0] [0x8 1 [0 0] 0.000000] (ERROR)
r 1.559266999 _9_ RTR  --- 0 AODV 32 [0 ffffffff 1 800] ------- [1:255 -1:255 1 0] [0x8 1 [0 0] 0.000000] (ERROR)
s 1.868660169 _0_ AGT  --- 27 tcp 1540 [0 0 0 0] ------- [0:0 4:0 32 0] [8 0] 0 0
r 1.868660169 _0_ RTR  --- 27 tcp 1540 [0 0 0 0] ------- [0:0 4:0 32 0] [8 0] 0 0
s 1.868660169 _0_ RTR  --- 0 AODV 48 [0 0 0 0] ------- [0:255 -1:255 5 0] [0x2 1 2 [4 5] [0 6]] (REQUEST)
r 1.869788757 _2_ RTR  --- 0 AODV 48 [0 ffffffff 0 800] ------- [0:255 -1:255 5 0] [0x2 1 2 [4 5] [0 6]] (REQUEST)
r 1.869788984 _9_ RTR  --- 0 AODV 48 [0 ffffffff 0 800] ------- [0:255 -1:255 5 0] [0x2 1 2 [4 5] [0 6]] (REQUEST)
s 1.870433647 _2_ RTR  --- 0 AODV 48 [0 ffffffff 0 800] ------- [2:255 -1:255 4 0] [0x2 2 2 [4 5] [0 6]] (REQUEST)
s 1.871555832 _9_ RTR  --- 0 AODV 48 [0 ffffffff 0 800] ------- [9:255 -1:255 4 0] [0x2 2 2 [4 5] [0 6]] (REQUEST)
r 1.871621973 _9_ RTR  --- 0 AODV 48 [0 ffffffff 2 800] ------- [2:255 -1:255 4 0] [0x2 2 2 [4 5] [0 6]] (REQUEST)
r 1.871622235 _0_ RTR  --- 0 AODV 48 [0 ffffffff 2 800] ------- [2:255 -1:255 4 0] [0x2 2 2 [4 5] [0 6]] (REQUEST)
r 1.871622369 _6_ RTR  --- 0 AODV 48 [0 ffffffff 2 800] ------- [2:255 -1:255 4 0] [0x2 2 2 [4 5] [0 6]] (REQUEST)
r 1.872520298 _2_ RTR  --- 0 AODV 48 [0 ffffffff 9 800] ------- [9:255 -1:255 4 0] [0x2 2 2 [4 5] [0 6]] (REQUEST)
r 1.872520558 _1_ RTR  --- 0 AODV 48 [0 ffffffff 9 800] ------- [9:255 -1:255 4 0] [0x2 2 2 [4 5] [0 6]] (REQUEST)
r 1.872520559 _6_ RTR  --- 0 AODV 48 [0 ffffffff 9 800] ------- [9:255 -1:255 4 0] [0x2 2 2 [4 5] [0 6]] (REQUEST)
r 1.872520788 _0_ RTR  --- 0 AODV 48 [0 ffffffff 9 800] ------- [9:255 -1:255 4 0] [0x2 2 2 [4 5] [0 6]] (REQUEST)
s 1.878684451 _6_ RTR  --- 0 AODV 48 [0 ffffffff 2 800] ------- [6:255 -1:255 3 0] [0x2 3 2 [4 5] [0 6]] (REQUEST)
r 1.880212758 _4_ RTR  --- 0 AODV 48 [0 ffffffff 6 800] ------- [6:255 -1:255 3 0] [0x2 3 2 [4 5] [0 6]] (REQUEST)
s 1.880212758 _4_ RTR  --- 0 AODV 44 [0 0 0 0] ------- [4:255 0:255 30 6] [0x4 1 [4 6] 10.000000] (REPLY)
r 1.880212771 _1_ RTR  --- 0 AODV 48 [0 ffffffff 6 800] ------- [6:255 -1:255 3 0] [0x2 3 2 [4 5] [0 6]] (REQUEST)
r 1.880213037 _9_ RTR  --- 0 AODV 48 [0 ffffffff 6 800] ------- [6:255 -1:255 3 0] [0x2 3 2 [4 5] [0 6]] (REQUEST)
r 1.880213173 _2_ RTR  --- 0 AODV 48 [0 ffffffff 6 800] ------- [6:255 -1:255 3 0] [0x2 3 2 [4 5] [0 6]] (REQUEST)
r 1.880213217 _3_ RTR  --- 0 AODV 48 [0 ffffffff 6 800] ------- [6:255 -1:255 3 0] [0x2 3 2 [4 5] [0 6]] (REQUEST)
s 1.880822971 _1_ RTR  --- 0 AODV 48 [0 ffffffff 9 800] ------- [1:255 -1:255 3 0] [0x2 3 2 [4 5] [0 6]] (REQUEST)
r 1.884268802 _6_ RTR  --- 0 AODV 48 [0 ffffffff 1 800] ------- [1:255 -1:255 3 0] [0x2 3 2 [4 5] [0 6]] (REQUEST)
r 1.884268977 _4_ RTR  --- 0 AODV 48 [0 ffffffff 1 800] ------- [1:255 -1:255 3 0] [0x2 3 2 [4 5] [0 6]] (REQUEST)
r 1.884269068 _9_ RTR  --- 0 AODV 48 [0 ffffffff 1 800] ------- [1:255 -1:255 3 0] [0x2 3 2 [4 5] [0 6]] (REQUEST)
r 1.885911899 _6_ RTR  --- 0 AODV 44 [13a 6 4 800] ------- [4:255 0:255 30 6] [0x4 1 [4 6] 10.000000] (REPLY)
f 1.885911899 _6_ RTR  --- 0 AODV 44 [13a 6 4 800] ------- [4:255 0:255 29 2] [0x4 2 [4 6] 10.000000] (REPLY)
r 1.888090065 _2_ RTR  --- 0 AODV 44 [13a 2 6 800] ------- [4:255 0:255 29 2] [0x4 2 [4 6] 10.000000] (REPLY)
f 1.888090065 _2_ RTR  --- 0 AODV 44 [13a 2 6 800] ------- [4:255 0:255 28 0] [0x4 3 [4 6] 10.000000] (REPLY)
s 1.888153596 _3_ RTR  --- 0 AODV 48 [0 ffffffff 6 800] ------- [3:255 -1:255 2 0] [0x2 4 2 [4 5] [0 6]] (REQUEST)
r 1.889947828 _0_ RTR  --- 0 AODV 44 [13a 0 2 800] ------- [4:255 0:255 28 0] [0x4 3 [4 6] 10.000000] (REPLY)
s 1.889947828 _0_ RTR  --- 27 tcp 1540 [0 0 0 0] ------- [0:0 4:0 30 2] [8 0] 0 0
r 1.905573591 _2_ RTR  --- 27 tcp 1540 [13a 2 0 800] ------- [0:0 4:0 30 2] [8 0] 1 0
f 1.905573591 _2_ RTR  --- 27 tcp 1540 [13a 2 0 800] ------- [0:0 4:0 29 6] [8 0] 1 0
r 1.922508645 _6_ RTR  --- 27 tcp 1540 [13a 6 2 800] ------- [0:0 4:0 29 6] [8 0] 2 0
f 1.922508645 _6_ RTR  --- 27 tcp 1540 [13a 6 2 800] ------- [0:0 4:0 28 4] [8 0] 2 0
r 1.936813569 _4_ AGT  --- 27 tcp 1540 [13a 4 6 800] ------- [0:0 4:0 28 4] [8 0] 3 0
s 1.936813569 _4_ AGT  --- 28 ack 40 [0 0 0 0] ------- [4:0 0:0 32 0] [9 0] 0 0
r 1.936813569 _4_ RTR  --- 28 ack 40 [0 0 0 0] ------- [4:0 0:0 32 0] [9 0] 0 0
s 1.936813569 _4_ RTR  --- 28 ack 40 [0 0 0 0] ------- [4:0 0:0 30 6] [9 0] 0 0
r 1.938678494 _6_ RTR  --- 28 ack 40 [13a 6 4 800] ------- [4:0 0:0 30 6] [9 0] 1 0
f 1.938678494 _6_ RTR  --- 28 ack 40 [13a 6 4 800] ------- [4:0 0:0 29 2] [9 0] 1 0
r 1.940944660 _2_ RTR  --- 28 ack 40 [13a 2 6 800] ------- [4:0 0:0 29 2] [9 0] 2 0
f 1.940944660 _2_ RTR  --- 28 ack 40 [13a 2 6 800] ------- [4:0 0:0 28 0] [9 0] 2 0
r 1.942770423 _0_ AGT  --- 28 ack 40 [13a 0 2 800] ------- [4:0 0:0 28 0] [9 0] 3 0
s 1.942770423 _0_ AGT  --- 29 tcp 1540 [0 0 0 0] ------- [0:0 4:0 32 0] [10 0] 0 0
r 1.942770423 _0_ RTR  --- 29 tcp 1540 [0 0 0 0] ------- [0:0 4:0 32 0] [10 0] 0 0
s 1.942770423 _0_ AGT  --- 30 tcp 1540 [0 0 0 0] ------- [0:0 4:0 32 0] [11 0] 0 0
r 1.942770423 _0_ RTR  --- 30 tcp 1540 [0 0 0 0] ------- [0:0 4:0 32 0] [11 0] 0 0
s 1.942770423 _0_ RTR  --- 29 tcp 1540 [0 0 0 0] ------- [0:0 4:0 30 2] [10 0] 0 0
s 1.942770423 _0_ RTR  --- 30 tcp 1540 [0 0 0 0] ------- [0:0 4:0 30 2] [11 0] 0 0
r 1.957156186 _2_ RTR  --- 29 tcp 1540 [13a 2 0 800] ------- [0:0 4:0 30 2] [10 0] 1 0
f 1.957156186 _2_ RTR  --- 29 tcp 1540 [13a 2 0 800] ------- [0:0 4:0 29 6] [10 0] 1 0
r 1.971302538 _2_ RTR  --- 30 tcp 1540 [13a 2 0 800] ------- [0:0 4:0 30 2] [11 0] 1 0
f 1.971302538 _2_ RTR  --- 30 tcp 1540 [13a 2 0 800] ------- [0:0 4:0 29 6] [11 0] 1 0
r 1.985148703 _6_ RTR  --- 29 tcp 1540 [13a 6 2 800] ------- [0:0 4:0 29 6] [10 0] 2 0
f 1.985148703 _6_ RTR  --- 29 tcp 1540 [13a 6 2 800] ------- [0:0 4:0 28 4] [10 0] 2 0
r 1.999013630 _4_ AGT  --- 29 tcp 1540 [13a 4 6 800] ------- [0:0 4:0 28 4] [10 0] 3 0
s 1.999013630 _4_ AGT  --- 31 ack 40 [0 0 0 0] ------- [4:0 0:0 32 0] [10 0] 0 0
r 1.999013630 _4_ RTR  --- 31 ack 40 [0 0 0 0] ------- [4:0 0:0 32 0] [10 0] 0 0
s 1.999013630 _4_ RTR  --- 31 ack 40 [0 0 0 0] ------- [4:0 0:0 30 6] [10 0] 0 0
r 2.001338558 _6_ RTR  --- 31 ack 40 [13a 6 4 800] ------- [4:0 0:0 30 6] [10 0] 1 0
f 2.001338558 _6_ RTR  --- 31 ack 40 [13a 6 4 800] ------- [4:0 0:0 29 2] [10 0] 1 0
r 2.015595425 _6_ RTR  --- 30 tcp 1540 [13a 6 2 800] ------- [0:0 4:0 29 6] [11 0] 2 0
f 2.015595425 _6_ RTR  --- 30 tcp 1540 [13a 6 2 800] ------- [0:0 4:0 28 4] [11 0] 2 0
r 2.017601590 _2_ RTR  --- 31 ack 40 [13a 2 6 800] ------- [4:0 0:0 29 2] [10 0] 2 0
f 2.017601590 _2_ RTR  --- 31 ack 40 [13a 2 6 800] ------- [4:0 0:0 28 0] [10 0] 2 0
r 2.031747240 _4_ AGT  --- 30 tcp 1540 [13a 4 6 800] ------- [0:0 4:0 28 4] [11 0] 3 0
s 2.031747240 _4_ AGT  --- 32 ack 40 [0 0 0 0] ------- [4:0 0:0 32 0] [11 0] 0 0
r 2.031747240 _4_ RTR  --- 32 ack 40 [0 0 0 0] ------- [4:0 0:0 32 0] [11 0] 0 0
s 2.031747240 _4_ RTR  --- 32 ack 40 [0 0 0 0] ------- [4:0 0:0 30 6] [11 0] 0 0
r 2.033952169 _6_ RTR  --- 32 ack 40 [13a 6 4 800] ------- [4:0 0:0 30 6] [11 0] 1 0
f 2.033952169 _6_ RTR  --- 32 ack 40 [13a 6 4 800] ------- [4:0 0:0 29 2] [11 0] 1 0
r 2.035908635 _0_ AGT  --- 31 ack 40 [13a 0 2 800] ------- [4:0 0:0 28 0] [10 0] 3 0
s 2.035908635 _0_ AGT  --- 33 tcp 1540 [0 0 0 0] ------- [0:0 4:0 32 0] [12 0] 0 0
r 2.035908635 _0_ RTR  --- 33 tcp 1540 [0 0 0 0] ------- [0:0 4:0 32 0] [12 0] 0 0
s 2.035908635 _0_ AGT  --- 34 tcp 1540 [0 0 0 0] ------- [0:0 4:0 32 0] [13 0] 0 0
r 2.035908635 _0_ RTR  --- 34 tcp 1540 [0 0 0 0] ------- [0:0 4:0 32 0] [13 0] 0 0
s 2.035908635 _0_ RTR  --- 33 tcp 1540 [0 0 0 0] ------- [0:0 4:0 30 2] [12 0] 0 0
s 2.035908635 _0_ RTR  --- 34 tcp 1540 [0 0 0 0] ------- [0:0 4:0 30 2] [13 0] 0 0
r 2.049754400 _2_ RTR  --- 33 tcp 1540 [13a 2 0 800] ------- [0:0 4:0 30 2] [12 0] 1 0
f 2.049754400 _2_ RTR  --- 33 tcp 1540 [13a 2 0 800] ------- [0:0 4:0 29 6] [12 0] 1 0
r 2.063680564 _6_ RTR  --- 33 tcp 1540 [13a 6 2 800] ------- [0:0 4:0 29 6] [12 0] 2 0
f 2.063680564 _6_ RTR  --- 33 tcp 1540 [13a 6 2 800] ------- [0:0 4:0 28 4] [12 0] 2 0
r 2.065646729 _2_ RTR  --- 32 ack 40 [13a 2 6 800] ------- [4:0 0:0 29 2] [11 0] 2 0
f 2.065646729 _2_ RTR  --- 32 ack 40 [13a 2 6 800] ------- [4:0 0:0 28 0] [11 0] 2 0
r 2.067472494 _0_ AGT  --- 32 ack 40 [13a 0 2 800] ------- [4:0 0:0 28 0] [11 0] 3 0
s 2.067472494 _0_ AGT  --- 35 tcp 1540 [0 0 0 0] ------- [0:0 4:0 32 0] [14 0] 0 0
r 2.067472494 _0_ RTR  --- 35 tcp 1540 [0 0 0 0] ------- [0:0 4:0 32 0] [14 0] 0 0
s 2.067472494 _0_ AGT  --- 36 tcp 1540 [0 0 0 0] ------- [0:0 4:0 32 0] [15 0] 0 0
r 2.067472494 _0_ RTR  --- 36 tcp 1540 [0 0 0 0] ------- [0:0 4:0 32 0] [15 0] 0 0
s 2.067472494 _0_ RTR  --- 35 tcp 1540 [0 0 0 0] ------- [0:0 4:0 30 2] [14 0] 0 0
s 2.067472494 _0_ RTR  --- 36 tcp 1540 [0 0 0 0] ------- [0:0 4:0 30 2] [15 0] 0 0
r 2.081658258 _2_ RTR  --- 34 tcp 1540 [13a 2 0 800] ------- [0:0 4:0 30 2] [13 0] 1 0