n -t * -s 0  -x 988 -y 526 -Z 0 -z 25  -v circle -c black
n -t * -s 1  -x 144 -y 833 -Z 0 -z 25  -v circle -c black
n -t * -s 2  -x 636 -y 939 -Z 0 -z 25  -v circle -c black
n -t * -s 3  -x 805 -y 632 -Z 0 -z 25  -v circle -c black
n -t * -s 4  -x 764 -y 787 -Z 0 -z 25  -v circle -c black
V -t * -v 1.0a5 -a 0
W -t * -x 1000 -y 1000
A -t * -n 1 -p 0 -o 0x7fffffff -c 30 -a 1
A -t * -h 1 -m 1073741823 -s 0
n -t 1.000000 -s 0 -x 988.000000 -y 526.000000 -U -5.959260 -V -0.698010 -T 114.611542
n -t 1.000000 -s 1 -x 144.000000 -y 833.000000 -U 6.154875 -V -6.566393 -T 55.890656
n -t 1.000000 -s 2 -x 636.000000 -y 939.000000 -U -0.947755 -V -0.319000 -T 432.601433
n -t 1.000000 -s 3 -x 805.000000 -y 632.000000 -U -3.379964 -V 2.139122 -T 131.362333
n -t 1.000000 -s 4 -x 764.000000 -y 787.000000 -U -4.726314 -V 1.631550 -T 77.227197
+ -t 1.000000000 -s 0 -d -1 -p tcp -e 40 -c 2 -a 0 -i 0 -k AGT 
- -t 1.000000000 -s 0 -d -1 -p tcp -e 40 -c 2 -a 0 -i 0 -k AGT
h -t 1.000000000 -s 0 -d -1 -p tcp -e 40 -c 2 -a 0 -i 0 -k AGT
+ -t 1.000000000 -s 0 -d -1 -p AODV -e 48 -c 2 -a 0 -i 0 -k RTR 
- -t 1.000000000 -s 0 -d -1 -p AODV -e 48 -c 2 -a 0 -i 0 -k RTR
h -t 1.000000000 -s 0 -d -1 -p AODV -e 48 -c 2 -a 0 -i 0 -k RTR
r -t 1.000988705 -s 3 -d -1 -p AODV -e 48 -c 2 -a 0 -i 0 -k RTR
+ -t 1.001869932 -s 3 -d -1 -p AODV -e 48 -c 2 -a 0 -i 0 -k RTR 
- -t 1.001869932 -s 3 -d -1 -p AODV -e 48 -c 2 -a 0 -i 0 -k RTR
h -t 1.001869932 -s 3 -d -1 -p AODV -e 48 -c 2 -a 0 -i 0 -k RTR
r -t 1.003138466 -s 4 -d -1 -p AODV -e 48 -c 2 -a 0 -i 0 -k RTR
+ -t 1.003138466 -s 4 -d 3 -p AODV -e 44 -c 2 -a 0 -i 0 -k RTR 
- -t 1.003138466 -s 4 -d 3 -p AODV -e 44 -c 2 -a 0 -i 0 -k RTR
h -t 1.003138466 -s 4 -d 3 -p AODV -e 44 -c 2 -a 0 -i 0 -k RTR
r -t 1.003138637 -s 0 -d -1 -p AODV -e 48 -c 2 -a 0 -i 0 -k RTR
+ -t 1.007945207 -s 3 -d 0 -p AODV -e 44 -c 2 -a 0 -i 0 -k RTR 
- -t 1.007945207 -s 3 -d 0 -p AODV -e 44 -c 2 -a 0 -i 0 -k RTR
h -t 1.007945207 -s 3 -d 0 -p AODV -e 44 -c 2 -a 0 -i 0 -k RTR
+ -t 1.013057142 -s 0 -d 3 -p tcp -e 40 -c 2 -a 0 -i 0 -k RTR 
- -t 1.013057142 -s 0 -d 3 -p tcp -e 40 -c 2 -a 0 -i 0 -k RTR
h -t 1.013057142 -s 0 -d 3 -p tcp -e 40 -c 2 -a 0 -i 0 -k RTR
+ -t 1.015123256 -s 3 -d 4 -p tcp -e 40 -c 2 -a 0 -i 0 -k RTR 
- -t 1.015123256 -s 3 -d 4 -p tcp -e 40 -c 2 -a 0 -i 0 -k RTR
h -t 1.015123256 -s 3 -d 4 -p tcp -e 40 -c 2 -a 0 -i 0 -k RTR
r -t 1.017428860 -s 4 -d 4 -p tcp -e 40 -c 2 -a 0 -i 0 -k AGT
+ -t 1.017428860 -s 4 -d -1 -p ack -e 40 -c 2 -a 0 -i 1 -k AGT 
- -t 1.017428860 -s 4 -d -1 -p ack -e 40 -c 2 -a 0 -i 1 -k AGT
h -t 1.017428860 -s 4 -d -1 -p ack -e 40 -c 2 -a 0 -i 1 -k AGT
+ -t 1.017428860 -s 4 -d 3 -p ack -e 40 -c 2 -a 0 -i 1 -k RTR 
- -t 1.017428860 -s 4 -d 3 -p ack -e 40 -c 2 -a 0 -i 1 -k RTR
h -t 1.017428860 -s 4 -d 3 -p ack -e 40 -c 2 -a 0 -i 1 -k RTR
+ -t 1.019574463 -s 3 -d 0 -p ack -e 40 -c 2 -a 0 -i 1 -k RTR 
- -t 1.019574463 -s 3 -d 0 -p ack -e 40 -c 2 -a 0 -i 1 -k RTR
h -t 1.019574463 -s 3 -d 0 -p ack -e 40 -c 2 -a 0 -i 1 -k RTR
r -t 1.021620577 -s 0 -d 0 -p ack -e 40 -c 2 -a 0 -i 1 -k AGT
+ -t 1.021620577 -s 0 -d -1 -p tcp -e 1540 -c 2 -a 0 -i 2 -k AGT 
- -t 1.021620577 -s 0 -d -1 -p tcp -e 1540 -c 2 -a 0 -i 2 -k AGT
h -t 1.021620577 -s 0 -d -1 -p tcp -e 1540 -c 2 -a 0 -i 2 -k AGT
+ -t 1.021620577 -s 0 -d -1 -p tcp -e 1540 -c 2 -a 0 -i 3 -k AGT 
- -t 1.021620577 -s 0 -d -1 -p tcp -e 1540 -c 2 -a 0 -i 3 -k AGT
h -t 1.021620577 -s 0 -d -1 -p tcp -e 1540 -c 2 -a 0 -i 3 -k AGT
+ -t 1.021620577 -s 0 -d 3 -p tcp -e 1540 -c 2 -a 0 -i 2 -k RTR 
- -t 1.021620577 -s 0 -d 3 -p tcp -e 1540 -c 2 -a 0 -i 2 -k RTR
h -t 1.021620577 -s 0 -d 3 -p tcp -e 1540 -c 2 -a 0 -i 2 -k RTR
+ -t 1.021620577 -s 0 -d 3 -p tcp -e 1540 -c 2 -a 0 -i 3 -k RTR 
- -t 1.021620577 -s 0 -d 3 -p tcp -e 1540 -c 2 -a 0 -i 3 -k RTR
h -t 1.021620577 -s 0 -d 3 -p tcp -e 1540 -c 2 -a 0 -i 3 -k RTR
+ -t 1.035686692 -s 3 -d 4 -p tcp -e 1540 -c 2 -a 0 -i 2 -k RTR 
- -t 1.035686692 -s 3 -d 4 -p tcp -e 1540 -c 2 -a 0 -i 2 -k RTR
h -t 1.035686692 -s 3 -d 4 -p tcp -e 1540 -c 2 -a 0 -i 2 -k RTR
+ -t 1.049693512 -s 3 -d 4 -p tcp -e 1540 -c 2 -a 0 -i 3 -k RTR 
- -t 1.049693512 -s 3 -d 4 -p tcp -e 1540 -c 2 -a 0 -i 3 -k RTR
h -t 1.049693512 -s 3 -d 4 -p tcp -e 1540 -c 2 -a 0 -i 3 -k RTR
r -t 1.063559115 -s 4 -d 4 -p tcp -e 1540 -c 2 -a 0 -i 2 -k AGT
+ -t 1.063559115 -s 4 -d -1 -p ack -e 40 -c 2 -a 0 -i 4 -k AGT 
- -t 1.063559115 -s 4 -d -1 -p ack -e 40 -c 2 -a 0 -i 4 -k AGT
h -t 1.063559115 -s 4 -d -1 -p ack -e 40 -c 2 -a 0 -i 4 -k AGT
+ -t 1.063559115 -s 4 -d 3 -p ack -e 40 -c 2 -a 0 -i 4 -k RTR 
- -t 1.063559115 -s 4 -d 3 -p ack -e 40 -c 2 -a 0 -i 4 -k RTR
h -t 1.063559115 -s 4 -d 3 -p ack -e 40 -c 2 -a 0 -i 4 -k RTR
+ -t 1.065784718 -s 3 -d 0 -p ack -e 40 -c 2 -a 0 -i 4 -k RTR 
- -t 1.065784718 -s 3 -d 0 -p ack -e 40 -c 2 -a 0 -i 4 -k RTR
h -t 1.065784718 -s 3 -d 0 -p ack -e 40 -c 2 -a 0 -i 4 -k RTR
r -t 1.079770321 -s 4 -d 4 -p tcp -e 1540 -c 2 -a 0 -i 3 -k AGT
+ -t 1.079770321 -s 4 -d -1 -p ack -e 40 -c 2 -a 0 -i 5 -k AGT 
- -t 1.079770321 -s 4 -d -1 -p ack -e 40 -c 2 -a 0 -i 5 -k AGT
h -t 1.079770321 -s 4 -d -1 -p ack -e 40 -c 2 -a 0 -i 5 -k AGT
+ -t 1.079770321 -s 4 -d 3 -p ack -e 40 -c 2 -a 0 -i 5 -k RTR 
- -t 1.079770321 -s 4 -d 3 -p ack -e 40 -c 2 -a 0 -i 5 -k RTR
h -t 1.079770321 -s 4 -d 3 -p ack -e 40 -c 2 -a 0 -i 5 -k RTR
r -t 1.081636970 -s 0 -d 0 -p ack -e 40 -c 2 -a 0 -i 4 -k AGT
+ -t 1.081636970 -s 0 -d -1 -p tcp -e 1540 -c 2 -a 0 -i 6 -k AGT 
- -t 1.081636970 -s 0 -d -1 -p tcp -e 1540 -c 2 -a 0 -i 6 -k AGT
h -t 1.081636970 -s 0 -d -1 -p tcp -e 1540 -c 2 -a 0 -i 6 -k AGT
+ -t 1.081636970 -s 0 -d -1 -p tcp -e 1540 -c 2 -a 0 -i 7 -k AGT 
- -t 1.081636970 -s 0 -d -1 -p tcp -e 1540 -c 2 -a 0 -i 7 -k AGT
h -t 1.081636970 -s 0 -d -1 -p tcp -e 1540 -c 2 -a 0 -i 7 -k AGT
+ -t 1.081636970 -s 0 -d 3 -p tcp -e 1540 -c 2 -a 0 -i 6 -k RTR 
- -t 1.081636970 -s 0 -d 3 -p tcp -e 1540 -c 2 -a 0 -i 6 -k RTR
h -t 1.081636970 -s 0 -d 3 -p tcp -e 1540 -c 2 -a 0 -i 6 -k RTR
+ -t 1.081636970 -s 0 -d 3 -p tcp -e 1540 -c 2 -a 0 -i 7 -k RTR 
- -t 1.081636970 -s 0 -d 3 -p tcp -e 1540 -c 2 -a 0 -i 7 -k RTR
h -t 1.081636970 -s 0 -d 3 -p tcp -e 1540 -c 2 -a 0 -i 7 -k RTR
+ -t 1.095903084 -s 3 -d 4 -p tcp -e 1540 -c 2 -a 0 -i 6 -k RTR 
- -t 1.095903084 -s 3 -d 4 -p tcp -e 1540 -c 2 -a 0 -i 6 -k RTR
h -t 1.095903084 -s 3 -d 4 -p tcp -e 1540 -c 2 -a 0 -i 6 -k RTR
+ -t 1.109869903 -s 3 -d 4 -p tcp -e 1540 -c 2 -a 0 -i 7 -k RTR 
- -t 1.109869903 -s 3 -d 4 -p tcp -e 1540 -c 2 -a 0 -i 7 -k RTR
h -t 1.109869903 -s 3 -d 4 -p tcp -e 1540 -c 2 -a 0 -i 7 -k RTR
+ -t 1.111785948 -s 3 -d 0 -p ack -e 40 -c 2 -a 0 -i 5 -k RTR 
- -t 1.111785948 -s 3 -d 0 -p ack -e 40 -c 2 -a 0 -i 5 -k RTR
h -t 1.111785948 -s 3 -d 0 -p ack -e 40 -c 2 -a 0 -i 5 -k RTR
r -t 1.125751551 -s 4 -d 4 -p tcp -e 1540 -c 2 -a 0 -i 6 -k AGT
+ -t 1.125751551 -s 4 -d -1 -p ack -e 40 -c 2 -a 0 -i 8 -k AGT 
- -t 1.125751551 -s 4 -d -1 -p ack -e 40 -c 2 -a 0 -i 8 -k AGT
h -t 1.125751551 -s 4 -d -1 -p ack -e 40 -c 2 -a 0 -i 8 -k AGT
+ -t 1.125751551 -s 4 -d 3 -p ack -e 40 -c 2 -a 0 -i 8 -k RTR 
- -t 1.125751551 -s 4 -d 3 -p ack -e 40 -c 2 -a 0 -i 8 -k RTR
h -t 1.125751551 -s 4 -d 3 -p ack -e 40 -c 2 -a 0 -i 8 -k RTR
+ -t 1.127737154 -s 3 -d 0 -p ack -e 40 -c 2 -a 0 -i 8 -k RTR 
- -t 1.127737154 -s 3 -d 0 -p ack -e 40 -c 2 -a 0 -i 8 -k RTR
h -t 1.127737154 -s 3 -d 0 -p ack -e 40 -c 2 -a 0 -i 8 -k RTR
r -t 1.141622757 -s 4 -d 4 -p tcp -e 1540 -c 2 -a 0 -i 7 -k AGT
+ -t 1.141622757 -s 4 -d -1 -p ack -e 40 -c 2 -a 0 -i 9 -k AGT 
- -t 1.141622757 -s 4 -d -1 -p ack -e 40 -c 2 -a 0 -i 9 -k AGT
h -t 1.141622757 -s 4 -d -1 -p ack -e 40 -c 2 -a 0 -i 9 -k AGT
+ -t 1.141622757 -s 4 -d 3 -p ack -e 40 -c 2 -a 0 -i 9 -k RTR 
- -t 1.141622757 -s 4 -d 3 -p ack -e 40 -c 2 -a 0 -i 9 -k RTR
h -t 1.141622757 -s 4 -d 3 -p ack -e 40 -c 2 -a 0 -i 9 -k RTR
+ -t 1.143508360 -s 3 -d 0 -p ack -e 40 -c 2 -a 0 -i 9 -k RTR 
- -t 1.143508360 -s 3 -d 0 -p ack -e 40 -c 2 -a 0 -i 9 -k RTR
h -t 1.143508360 -s 3 -d 0 -p ack -e 40 -c 2 -a 0 -i 9 -k RTR
r -t 1.145814474 -s 0 -d 0 -p ack -e 40 -c 2 -a 0 -i 5 -k AGT
+ -t 1.145814474 -s 0 -d -1 -p tcp -e 1540 -c 2 -a 0 -i 10 -k AGT 
- -t 1.145814474 -s 0 -d -1 -p tcp -e 1540 -c 2 -a 0 -i 10 -k AGT
h -t 1.145814474 -s 0 -d -1 -p tcp -e 1540 -c 2 -a 0 -i 10 -k AGT
+ -t 1.145814474 -s 0 -d -1 -p tcp -e 1540 -c 2 -a 0 -i 11 -k AGT 
- -t 1.145814474 -s 0 -d -1 -p tcp -e 1540 -c 2 -a 0 -i 11 -k AGT
h -t 1.145814474 -s 0 -d -1 -p tcp -e 1540 -c 2 -a 0 -i 11 -k AGT
+ -t 1.145814474 -s 0 -d 3 -p tcp -e 1540 -c 2 -a 0 -i 10 -k RTR 
- -t 1.145814474 -s 0 -d 3 -p tcp -e 1540 -c 2 -a 0 -i 10 -k RTR
h -t 1.145814474 -s 0 -d 3 -p tcp -e 1540 -c 2 -a 0 -i 10 -k RTR
+ -t 1.145814474 -s 0 -d 3 -p tcp -e 1540 -c 2 -a 0 -i 11 -k RTR 
- -t 1.145814474 -s 0 -d 3 -p tcp -e 1540 -c 2 -a 0 -i 11 -k RTR
h -t 1.145814474 -s 0 -d 3 -p tcp -e 1540 -c 2 -a 0 -i 11 -k RTR
+ -t 1.159840588 -s 3 -d 4 -p tcp -e 1540 -c 2 -a 0 -i 10 -k RTR 
- -t 1.159840588 -s 3 -d 4 -p tcp -e 1540 -c 2 -a 0 -i 10 -k RTR
h -t 1.159840588 -s 3 -d 4 -p tcp -e 1540 -c 2 -a 0 -i 10 -k RTR
+ -t 1.173727406 -s 3 -d 4 -p tcp -e 1540 -c 2 -a 0 -i 11 -k RTR 
- -t 1.173727406 -s 3 -d 4 -p tcp -e 1540 -c 2 -a 0 -i 11 -k RTR
h -t 1.173727406 -s 3 -d 4 -p tcp -e 1540 -c 2 -a 0 -i 11 -k RTR
r -t 1.175893519 -s 0 -d 0 -p ack -e 40 -c 2 -a 0 -i 8 -k AGT
+ -t 1.175893519 -s 0 -d -1 -p tcp -e 1540 -c 2 -a 0 -i 12 -k AGT 
- -t 1.175893519 -s 0 -d -1 -p tcp -e 1540 -c 2 -a 0 -i 12 -k AGT
h -t 1.175893519 -s 0 -d -1 -p tcp -e 1540 -c 2 -a 0 -i 12 -k AGT
+ -t 1.175893519 -s 0 -d -1 -p tcp -e 1540 -c 2 -a 0 -i 13 -k AGT 
- -t 1.175893519 -s 0 -d -1 -p tcp -e 1540 -c 2 -a 0 -i 13 -k AGT
h -t 1.175893519 -s 0 -d -1 -p tcp -e 1540 -c 2 -a 0 -i 13 -k AGT
+ -t 1.175893519 -s 0 -d 3 -p tcp -e 1540 -c 2 -a 0 -i 12 -k RTR 
- -t 1.175893519 -s 0 -d 3 -p tcp -e 1540 -c 2 -a 0 -i 12 -k RTR
h -t 1.175893519 -s 0 -d 3 -p tcp -e 1540 -c 2 -a 0 -i 12 -k RTR
+ -t 1.175893519 -s 0 -d 3 -p tcp -e 1540 -c 2 -a 0 -i 13 -k RTR 
- -t 1.175893519 -s 0 -d 3 -p tcp -e 1540 -c 2 -a 0 -i 13 -k RTR
h -t 1.175893519 -s 0 -d 3 -p tcp -e 1540 -c 2 -a 0 -i 13 -k RTR
+ -t 1.190059633 -s 3 -d 4 -p tcp -e 1540 -c 2 -a 0 -i 12 -k RTR 
- -t 1.190059633 -s 3 -d 4 -p tcp -e 1540 -c 2 -a 0 -i 12 -k RTR
h -t 1.190059633 -s 3 -d 4 -p tcp -e 1540 -c 2 -a 0 -i 12 -k RTR
r -t 1.192065746 -s 0 -d 0 -p ack -e 40 -c 2 -a 0 -i 9 -k AGT
+ -t 1.192065746 -s 0 -d -1 -p tcp -e 1540 -c 2 -a 0 -i 14 -k AGT 
- -t 1.192065746 -s 0 -d -1 -p tcp -e 1540 -c 2 -a 0 -i 14 -k AGT
h -t 1.192065746 -s 0 -d -1 -p tcp -e 1540 -c 2 -a 0 -i 14 -k AGT
+ -t 1.192065746 -s 0 -d -1 -p tcp -e 1540 -c 2 -a 0 -i 15 -k AGT 
- -t 1.192065746 -s 0 -d -1 -p tcp -e 1540 -c 2 -a 0 -i 15 -k AGT
h -t 1.192065746 -s 0 -d -1 -p tcp -e 1540 -c 2 -a 0 -i 15 -k AGT
+ -t 1.192065746 -s 0 -d 3 -p tcp -e 1540 -c 2 -a 0 -i 14 -k RTR 
- -t 1.192065746 -s 0 -d 3 -p tcp -e 1540 -c 2 -a 0 -i 14 -k RTR
h -t 1.192065746 -s 0 -d 3 -p tcp -e 1540 -c 2 -a 0 -i 14 -k RTR
+ -t 1.192065746 -s 0 -d 3 -p tcp -e 1540 -c 2 -a 0 -i 15 -k RTR 
- -t 1.192065746 -s 0 -d 3 -p tcp -e 1540 -c 2 -a 0 -i 15 -k RTR
h -t 1.192065746 -s 0 -d 3 -p tcp -e 1540 -c 2 -a 0 -i 15 -k RTR
+ -t 1.206011859 -s 3 -d 4 -p tcp -e 1540 -c 2 -a 0 -i 13 -k RTR 
- -t 1.206011859 -s 3 -d 4 -p tcp -e 1540 -c 2 -a 0 -i 13 -k RTR
h -t 1.206011859 -s 3 -d 4 -p tcp -e 1540 -c 2 -a 0 -i 13 -k RTR
r -t 1.219917462 -s 4 -d 4 -p tcp -e 1540 -c 2 -a 0 -i 10 -k AGT
+ -t 1.219917462 -s 4 -d -1 -p ack -e 40 -c 2 -a 0 -i 16 -k AGT 
- -t 1.219917462 -s 4 -d -1 -p ack -e 40 -c 2 -a 0 -i 16 -k AGT
h -t 1.219917462 -s 4 -d -1 -p ack -e 40 -c 2 -a 0 -i 16 -k AGT
+ -t 1.219917462 -s 4 -d 3 -p ack -e 40 -c 2 -a 0 -i 16 -k RTR 
- -t 1.219917462 -s 4 -d 3 -p ack -e 40 -c 2 -a 0 -i 16 -k RTR
h -t 1.219917462 -s 4 -d 3 -p ack -e 40 -c 2 -a 0 -i 16 -k RTR
r -t 1.233743599 -s 4 -d 4 -p tcp -e 1540 -c 2 -a 0 -i 11 -k AGT
+ -t 1.233743599 -s 4 -d -1 -p ack -e 40 -c 2 -a 0 -i 17 -k AGT 
- -t 1.233743599 -s 4 -d -1 -p ack -e 40 -c 2 -a 0 -i 17 -k AGT
h -t 1.233743599 -s 4 -d -1 -p ack -e 40 -c 2 -a 0 -i 17 -k AGT
+ -t 1.233743599 -s 4 -d 3 -p ack -e 40 -c 2 -a 0 -i 17 -k RTR 
- -t 1.233743599 -s 4 -d 3 -p ack -e 40 -c 2 -a 0 -i 17 -k RTR
h -t 1.233743599 -s 4 -d 3 -p ack -e 40 -c 2 -a 0 -i 17 -k RTR
r -t 1.247789737 -s 4 -d 4 -p tcp -e 1540 -c 2 -a 0 -i 12 -k AGT
+ -t 1.247789737 -s 4 -d -1 -p ack -e 40 -c 2 -a 0 -i 18 -k AGT 
- -t 1.247789737 -s 4 -d -1 -p ack -e 40 -c 2 -a 0 -i 18 -k AGT
h -t 1.247789737 -s 4 -d -1 -p ack -e 40 -c 2 -a 0 -i 18 -k AGT
+ -t 1.247789737 -s 4 -d 3 -p ack -e 40 -c 2 -a 0 -i 18 -k RTR 
- -t 1.247789737 -s 4 -d 3 -p ack -e 40 -c 2 -a 0 -i 18 -k RTR
h -t 1.247789737 -s 4 -d 3 -p ack -e 40 -c 2 -a 0 -i 18 -k RTR
+ -t 1.249875340 -s 3 -d 0 -p ack -e 40 -c 2 -a 0 -i 16 -k RTR 
- -t 1.249875340 -s 3 -d 0 -p ack -e 40 -c 2 -a 0 -i 16 -k RTR
h -t 1.249875340 -s 3 -d 0 -p ack -e 40 -c 2 -a 0 -i 16 -k RTR
r -t 1.263780943 -s 4 -d 4 -p tcp -e 1540 -c 2 -a 0 -i 13 -k AGT
+ -t 1.263780943 -s 4 -d -1 -p ack -e 40 -c 2 -a 0 -i 19 -k AGT 
- -t 1.263780943 -s 4 -d -1 -p ack -e 40 -c 2 -a 0 -i 19 -k AGT
h -t 1.263780943 -s 4 -d -1 -p ack -e 40 -c 2 -a 0 -i 19 -k AGT
+ -t 1.263780943 -s 4 -d 3 -p ack -e 40 -c 2 -a 0 -i 19 -k RTR 
- -t 1.263780943 -s 4 -d 3 -p ack -e 40 -c 2 -a 0 -i 19 -k RTR
h -t 1.263780943 -s 4 -d 3 -p ack -e 40 -c 2 -a 0 -i 19 -k RTR
+ -t 1.265706546 -s 3 -d 0 -p ack -e 40 -c 2 -a 0 -i 17 -k RTR 
- -t 1.265706546 -s 3 -d 0 -p ack -e 40 -c 2 -a 0 -i 17 -k RTR
h -t 1.265706546 -s 3 -d 0 -p ack -e 40 -c 2 -a 0 -i 17 -k RTR
+ -t 1.267612683 -s 3 -d 0 -p ack -e 40 -c 2 -a 0 -i 18 -k RTR 
- -t 1.267612683 -s 3 -d 0 -p ack -e 40 -c 2 -a 0 -i 18 -k RTR
h -t 1.267612683 -s 3 -d 0 -p ack -e 40 -c 2 -a 0 -i 18 -k RTR
r -t 1.269498796 -s 0 -d 0 -p ack -e 40 -c 2 -a 0 -i 16 -k AGT
+ -t 1.269498796 -s 0 -d -1 -p tcp -e 1540 -c 2 -a 0 -i 20 -k AGT 
- -t 1.269498796 -s 0 -d -1 -p tcp -e 1540 -c 2 -a 0 -i 20 -k AGT
h -t 1.269498796 -s 0 -d -1 -p tcp -e 1540 -c 2 -a 0 -i 20 -k AGT
+ -t 1.269498796 -s 0 -d -1 -p tcp -e 1540 -c 2 -a 0 -i 21 -k AGT 
- -t 1.269498796 -s 0 -d -1 -p tcp -e 1540 -c 2 -a 0 -i 21 -k AGT
h -t 1.269498796 -s 0 -d -1 -p tcp -e 1540 -c 2 -a 0 -i 21 -k AGT
+ -t 1.269498796 -s 0 -d 3 -p tcp -e 1540 -c 2 -a 0 -i 20 -k RTR 
- -t 1.269498796 -s 0 -d 3 -p tcp -e 1540 -c 2 -a 0 -i 20 -k RTR
h -t 1.269498796 -s 0 -d 3 -p tcp -e 1540 -c 2 -a 0 -i 20 -k RTR
+ -t 1.269498796 -s 0 -d 3 -p tcp -e 1540 -c 2 -a 0 -i 21 -k RTR 
- -t 1.269498796 -s 0 -d 3 -p tcp -e 1540 -c 2 -a 0 -i 21 -k RTR
h -t 1.269498796 -s 0 -d 3 -p tcp -e 1540 -c 2 -a 0 -i 21 -k RTR
r -t 1.271325612 -s 0 -d 0 -p ack -e 40 -c 2 -a 0 -i 17 -k AGT
+ -t 1.271325612 -s 0 -d -1 -p tcp -e 1540 -c 2 -a 0 -i 22 -k AGT 
- -t 1.271325612 -s 0 -d -1 -p tcp -e 1540 -c 2 -a 0 -i 22 -k AGT
h -t 1.271325612 -s 0 -d -1 -p tcp -e 1540 -c 2 -a 0 -i 22 -k AGT
+ -t 1.271325612 -s 0 -d -1 -p tcp -e 1540 -c 2 -a 0 -i 23 -k AGT 
- -t 1.271325612 -s 0 -d -1 -p tcp -e 1540 -c 2 -a 0 -i 23 -k AGT
h -t 1.271325612 -s 0 -d -1 -p tcp -e 1540 -c 2 -a 0 -i 23 -k AGT
+ -t 1.271325612 -s 0 -d 3 -p tcp -e 1540 -c 2 -a 0 -i 22 -k RTR 
- -t 1.271325612 -s 0 -d 3 -p tcp -e 1540 -c 2 -a 0 -i 22 -k RTR
h -t 1.271325612 -s 0 -d 3 -p tcp -e 1540 -c 2 -a 0 -i 22 -k RTR
+ -t 1.271325612 -s 0 -d 3 -p tcp -e 1540 -c 2 -a 0 -i 23 -k RTR 
- -t 1.271325612 -s 0 -d 3 -p tcp -e 1540 -c 2 -a 0 -i 23 -k RTR
h -t 1.271325612 -s 0 -d 3 -p tcp -e 1540 -c 2 -a 0 -i 23 -k RTR
+ -t 1.285331725 -s 3 -d 4 -p tcp -e 1540 -c 2 -a 0 -i 14 -k RTR 
- -t 1.285331725 -s 3 -d 4 -p tcp -e 1540 -c 2 -a 0 -i 14 -k RTR
h -t 1.285331725 -s 3 -d 4 -p tcp -e 1540 -c 2 -a 0 -i 14 -k RTR
r -t 1.287237838 -s 0 -d 0 -p ack -e 40 -c 2 -a 0 -i 18 -k AGT
+ -t 1.287237838 -s 0 -d -1 -p tcp -e 1540 -c 2 -a 0 -i 24 -k AGT 
- -t 1.287237838 -s 0 -d -1 -p tcp -e 1540 -c 2 -a 0 -i 24 -k AGT
h -t 1.287237838 -s 0 -d -1 -p tcp -e 1540 -c 2 -a 0 -i 24 -k AGT
+ -t 1.287237838 -s 0 -d -1 -p tcp -e 1540 -c 2 -a 0 -i 25 -k AGT 
- -t 1.287237838 -s 0 -d -1 -p tcp -e 1540 -c 2 -a 0 -i 25 -k AGT
h -t 1.287237838 -s 0 -d -1 -p tcp -e 1540 -c 2 -a 0 -i 25 -k AGT
+ -t 1.287237838 -s 0 -d 3 -p tcp -e 1540 -c 2 -a 0 -i 24 -k RTR 
- -t 1.287237838 -s 0 -d 3 -p tcp -e 1540 -c 2 -a 0 -i 24 -k RTR
h -t 1.287237838 -s 0 -d 3 -p tcp -e 1540 -c 2 -a 0 -i 24 -k RTR
+ -t 1.287237838 -s 0 -d 3 -p tcp -e 1540 -c 2 -a 0 -i 25 -k RTR 
- -t 1.287237838 -s 0 -d 3 -p tcp -e 1540 -c 2 -a 0 -i 25 -k RTR
h -t 1.287237838 -s 0 -d 3 -p tcp -e 1540 -c 2 -a 0 -i 25 -k RTR
+ -t 1.301303950 -s 3 -d 4 -p tcp -e 1540 -c 2 -a 0 -i 15 -k RTR 
- -t 1.301303950 -s 3 -d 4 -p tcp -e 1540 -c 2 -a 0 -i 15 -k RTR
h -t 1.301303950 -s 3 -d 4 -p tcp -e 1540 -c 2 -a 0 -i 15 -k RTR
+ -t 1.315150767 -s 3 -d 4 -p tcp -e 1540 -c 2 -a 0 -i 20 -k RTR 
- -t 1.315150767 -s 3 -d 4 -p tcp -e 1540 -c 2 -a 0 -i 20 -k RTR
h -t 1.315150767 -s 3 -d 4 -p tcp -e 1540 -c 2 -a 0 -i 20 -k RTR
r -t 1.329016370 -s 4 -d 4 -p tcp -e 1540 -c 2 -a 0 -i 14 -k AGT
+ -t 1.329016370 -s 4 -d -1 -p ack -e 40 -c 2 -a 0 -i 26 -k AGT 
- -t 1.329016370 -s 4 -d -1 -p ack -e 40 -c 2 -a 0 -i 26 -k AGT
h -t 1.329016370 -s 4 -d -1 -p ack -e 40 -c 2 -a 0 -i 26 -k AGT
+ -t 1.329016370 -s 4 -d 3 -p ack -e 40 -c 2 -a 0 -i 26 -k RTR 
- -t 1.329016370 -s 4 -d 3 -p ack -e 40 -c 2 -a 0 -i 26 -k RTR
h -t 1.329016370 -s 4 -d 3 -p ack -e 40 -c 2 -a 0 -i 26 -k RTR
+ -t 1.331081972 -s 3 -d 0 -p ack -e 40 -c 2 -a 0 -i 19 -k RTR 
- -t 1.331081972 -s 3 -d 0 -p ack -e 40 -c 2 -a 0 -i 19 -k RTR
h -t 1.331081972 -s 3 -d 0 -p ack -e 40 -c 2 -a 0 -i 19 -k RTR
r -t 1.344927575 -s 4 -d 4 -p tcp -e 1540 -c 2 -a 0 -i 15 -k AGT
+ -t 1.344927575 -s 4 -d -1 -p ack -e 40 -c 2 -a 0 -i 27 -k AGT 
- -t 1.344927575 -s 4 -d -1 -p ack -e 40 -c 2 -a 0 -i 27 -k AGT
h -t 1.344927575 -s 4 -d -1 -p ack -e 40 -c 2 -a 0 -i 27 -k AGT
+ -t 1.344927575 -s 4 -d 3 -p ack -e 40 -c 2 -a 0 -i 27 -k RTR 
- -t 1.344927575 -s 4 -d 3 -p ack -e 40 -c 2 -a 0 -i 27 -k RTR
h -t 1.344927575 -s 4 -d 3 -p ack -e 40 -c 2 -a 0 -i 27 -k RTR
+ -t 1.346873178 -s 3 -d 0 -p ack -e 40 -c 2 -a 0 -i 26 -k RTR 
- -t 1.346873178 -s 3 -d 0 -p ack -e 40 -c 2 -a 0 -i 26 -k RTR
h -t 1.346873178 -s 3 -d 0 -p ack -e 40 -c 2 -a 0 -i 26 -k RTR
+ -t 1.348739315 -s 3 -d 0 -p ack -e 40 -c 2 -a 0 -i 27 -k RTR 
- -t 1.348739315 -s 3 -d 0 -p ack -e 40 -c 2 -a 0 -i 27 -k RTR
h -t 1.348739315 -s 3 -d 0 -p ack -e 40 -c 2 -a 0 -i 27 -k RTR
r -t 1.362724918 -s 4 -d 4 -p tcp -e 1540 -c 2 -a 0 -i 20 -k AGT
+ -t 1.362724918 -s 4 -d -1 -p ack -e 40 -c 2 -a 0 -i 28 -k AGT 
- -t 1.362724918 -s 4 -d -1 -p ack -e 40 -c 2 -a 0 -i 28 -k AGT
h -t 1.362724918 -s 4 -d -1 -p ack -e 40 -c 2 -a 0 -i 28 -k AGT
+ -t 1.362724918 -s 4 -d 3 -p ack -e 40 -c 2 -a 0 -i 28 -k RTR 
- -t 1.362724918 -s 4 -d 3 -p ack -e 40 -c 2 -a 0 -i 28 -k RTR
h -t 1.362724918 -s 4 -d 3 -p ack -e 40 -c 2 -a 0 -i 28 -k RTR
r -t 1.364671564 -s 0 -d 0 -p ack -e 40 -c 2 -a 0 -i 19 -k AGT
+ -t 1.364671564 -s 0 -d -1 -p tcp -e 1540 -c 2 -a 0 -i 29 -k AGT 
- -t 1.364671564 -s 0 -d -1 -p tcp -e 1540 -c 2 -a 0 -i 29 -k AGT
h -t 1.364671564 -s 0 -d -1 -p tcp -e 1540 -c 2 -a 0 -i 29 -k AGT
+ -t 1.364671564 -s 0 -d -1 -p tcp -e 1540 -c 2 -a 0 -i 30 -k AGT 
- -t 1.364671564 -s 0 -d -1 -p tcp -e 1540 -c 2 -a 0 -i 30 -k AGT
h -t 1.364671564 -s 0 -d -1 -p tcp -e 1540 -c 2 -a 0 -i 30 -k AGT
+ -t 1.364671564 -s 0 -d 3 -p tcp -e 1540 -c 2 -a 0 -i 29 -k RTR 
- -t 1.364671564 -s 0 -d 3 -p tcp -e 1540 -c 2 -a 0 -i 29 -k RTR
h -t 1.364671564 -s 0 -d 3 -p tcp -e 1540 -c 2 -a 0 -i 29 -k RTR
+ -t 1.364671564 -s 0 -d 3 -p tcp -e 1540 -c 2 -a 0 -i 30 -k RTR 
- -t 1.364671564 -s 0 -d 3 -p tcp -e 1540 -c 2 -a 0 -i 30 -k RTR
h -t 1.364671564 -s 0 -d 3 -p tcp -e 1540 -c 2 -a 0 -i 30 -k RTR
r -t 1.366698380 -s 0 -d 0 -p ack -e 40 -c 2 -a 0 -i 26 -k AGT
+ -t 1.366698380 -s 0 -d -1 -p tcp -e 1540 -c 2 -a 0 -i 31 -k AGT 
- -t 1.366698380 -s 0 -d -1 -p tcp -e 1540 -c 2 -a 0 -i 31 -k AGT
h -t 1.366698380 -s 0 -d -1 -p tcp -e 1540 -c 2 -a 0 -i 31 -k AGT
+ -t 1.366698380 -s 0 -d -1 -p tcp -e 1540 -c 2 -a 0 -i 32 -k AGT 
- -t 1.366698380 -s 0 -d -1 -p tcp -e 1540 -c 2 -a 0 -i 32 -k AGT
h -t 1.366698380 -s 0 -d -1 -p tcp -e 1540 -c 2 -a 0 -i 32 -k AGT
+ -t 1.366698380 -s 0 -d 3 -p tcp -e 1540 -c 2 -a 0 -i 31 -k RTR 
- -t 1.366698380 -s 0 -d 3 -p tcp -e 1540 -c 2 -a 0 -i 31 -k RTR
h -t 1.366698380 -s 0 -d 3 -p tcp -e 1540 -c 2 -a 0 -i 31 -k RTR
+ -t 1.366698380 -s 0 -d 3 -p tcp -e 1540 -c 2 -a 0 -i 32 -k RTR 
- -t 1.366698380 -s 0 -d 3 -p tcp -e 1540 -c 2 -a 0 -i 32 -k RTR
h -t 1.366698380 -s 0 -d 3 -p tcp -e 1540 -c 2 -a 0 -i 32 -k RTR
r -t 1.368625196 -s 0 -d 0 -p ack -e 40 -c 2 -a 0 -i 27 -k AGT
+ -t 1.368625196 -s 0 -d -1 -p tcp -e 1540 -c 2 -a 0 -i 33 -k AGT 
- -t 1.368625196 -s 0 -d -1 -p tcp -e 1540 -c 2 -a 0 -i 33 -k AGT
h -t 1.368625196 -s 0 -d -1 -p tcp -e 1540 -c 2 -a 0 -i 33 -k AGT
+ -t 1.368625196 -s 0 -d -1 -p tcp -e 1540 -c 2 -a 0 -i 34 -k AGT 
- -t 1.368625196 -s 0 -d -1 -p tcp -e 1540 -c 2 -a 0 -i 34 -k AGT
h -t 1.368625196 -s 0 -d -1 -p tcp -e 1540 -c 2 -a 0 -i 34 -k AGT
+ -t 1.368625196 -s 0 -d 3 -p tcp -e 1540 -c 2 -a 0 -i 33 -k RTR 
- -t 1.368625196 -s 0 -d 3 -p tcp -e 1540 -c 2 -a 0 -i 33 -k RTR
h -t 1.368625196 -s 0 -d 3 -p tcp -e 1540 -c 2 -a 0 -i 33 -k RTR
+ -t 1.368625196 -s 0 -d 3 -p tcp -e 1540 -c 2 -a 0 -i 34 -k RTR 
- -t 1.368625196 -s 0 -d 3 -p tcp -e 1540 -c 2 -a 0 -i 34 -k RTR
h -t 1.368625196 -s 0 -d 3 -p tcp -e 1540 -c 2 -a 0 -i 34 -k RTR
+ -t 1.382511308 -s 3 -d 4 -p tcp -e 1540 -c 2 -a 0 -i 21 -k RTR 
- -t 1.382511308 -s 3 -d 4 -p tcp -e 1540 -c 2 -a 0 -i 21 -k RTR
h -t 1.382511308 -s 3 -d 4 -p tcp -e 1540 -c 2 -a 0 -i 21 -k RTR
r -t 1.396376910 -s 4 -d 4 -p tcp -e 1540 -c 2 -a 0 -i 21 -k AGT
+ -t 1.396376910 -s 4 -d -1 -p ack -e 40 -c 2 -a 0 -i 35 -k AGT 
- -t 1.396376910 -s 4 -d -1 -p ack -e 40 -c 2 -a 0 -i 35 -k AGT
h -t 1.396376910 -s 4 -d -1 -p ack -e 40 -c 2 -a 0 -i 35 -k AGT
+ -t 1.396376910 -s 4 -d 3 -p ack -e 40 -c 2 -a 0 -i 35 -k RTR 
- -t 1.396376910 -s 4 -d 3 -p ack -e 40 -c 2 -a 0 -i 35 -k RTR
h -t 1.396376910 -s 4 -d 3 -p ack -e 40 -c 2 -a 0 -i 35 -k RTR
+ -t 1.398402513 -s 3 -d 0 -p ack -e 40 -c 2 -a 0 -i 28 -k RTR 
- -t 1.398402513 -s 3 -d 0 -p ack -e 40 -c 2 -a 0 -i 28 -k RTR
h -t 1.398402513 -s 3 -d 0 -p ack -e 40 -c 2 -a 0 -i 28 -k RTR
r -t 1.400248625 -s 0 -d 0 -p ack -e 40 -c 2 -a 0 -i 28 -k AGT
+ -t 1.400248625 -s 0 -d -1 -p tcp -e 1540 -c 2 -a 0 -i 36 -k AGT 
- -t 1.400248625 -s 0 -d -1 -p tcp -e 1540 -c 2 -a 0 -i 36 -k AGT
h -t 1.400248625 -s 0 -d -1 -p tcp -e 1540 -c 2 -a 0 -i 36 -k AGT
+ -t 1.400248625 -s 0 -d -1 -p tcp -e 1540 -c 2 -a 0 -i 37 -k AGT 
- -t 1.400248625 -s 0 -d -1 -p tcp -e 1540 -c 2 -a 0 -i 37 -k AGT
h -t 1.400248625 -s 0 -d -1 -p tcp -e 1540 -c 2 -a 0 -i 37 -k AGT
+ -t 1.400248625 -s 0 -d 3 -p tcp -e 1540 -c 2 -a 0 -i 36 -k RTR 
- -t 1.400248625 -s 0 -d 3 -p tcp -e 1540 -c 2 -a 0 -i 36 -k RTR
h -t 1.400248625 -s 0 -d 3 -p tcp -e 1540 -c 2 -a 0 -i 36 -k RTR
+ -t 1.400248625 -s 0 -d 3 -p tcp -e 1540 -c 2 -a 0 -i 37 -k RTR 
- -t 1.400248625 -s 0 -d 3 -p tcp -e 1540 -c 2 -a 0 -i 37 -k RTR
h -t 1.400248625 -s 0 -d 3 -p tcp -e 1540 -c 2 -a 0 -i 37 -k RTR
+ -t 1.414314736 -s 3 -d 4 -p tcp -e 1540 -c 2 -a 0 -i 22 -k RTR 
- -t 1.414314736 -s 3 -d 4 -p tcp -e 1540 -c 2 -a 0 -i 22 -k RTR
h -t 1.414314736 -s 3 -d 4 -p tcp -e 1540 -c 2 -a 0 -i 22 -k RTR
+ -t 1.416250783 -s 3 -d 0 -p ack -e 40 -c 2 -a 0 -i 35 -k RTR 
- -t 1.416250783 -s 3 -d 0 -p ack -e 40 -c 2 -a 0 -i 35 -k RTR
h -t 1.416250783 -s 3 -d 0 -p ack -e 40 -c 2 -a 0 -i 35 -k RTR
r -t 1.430096386 -s 4 -d 4 -p tcp -e 1540 -c 2 -a 0 -i 22 -k AGT
+ -t 1.430096386 -s 4 -d -1 -p ack -e 40 -c 2 -a 0 -i 38 -k AGT 
- -t 1.430096386 -s 4 -d -1 -p ack -e 40 -c 2 -a 0 -i 38 -k AGT
h -t 1.430096386 -s 4 -d -1 -p ack -e 40 -c 2 -a 0 -i 38 -k AGT
+ -t 1.430096386 -s 4 -d 3 -p ack -e 40 -c 2 -a 0 -i 38 -k RTR 
- -t 1.430096386 -s 4 -d 3 -p ack -e 40 -c 2 -a 0 -i 38 -k RTR
h -t 1.430096386 -s 4 -d 3 -p ack -e 40 -c 2 -a 0 -i 38 -k RTR
r -t 1.431983031 -s 0 -d 0 -p ack -e 40 -c 2 -a 0 -i 35 -k AGT
+ -t 1.431983031 -s 0 -d -1 -p tcp -e 1540 -c 2 -a 0 -i 39 -k AGT 
- -t 1.431983031 -s 0 -d -1 -p tcp -e 1540 -c 2 -a 0 -i 39 -k AGT
h -t 1.431983031 -s 0 -d -1 -p tcp -e 1540 -c 2 -a 0 -i 39 -k AGT
+ -t 1.431983031 -s 0 -d -1 -p tcp -e 1540 -c 2 -a 0 -i 40 -k AGT 
- -t 1.431983031 -s 0 -d -1 -p tcp -e 1540 -c 2 -a 0 -i 40 -k AGT
h -t 1.431983031 -s 0 -d -1 -p tcp -e 1540 -c 2 -a 0 -i 40 -k AGT
+ -t 1.431983031 -s 0 -d 3 -p tcp -e 1540 -c 2 -a 0 -i 39 -k RTR 
- -t 1.431983031 -s 0 -d 3 -p tcp -e 1540 -c 2 -a 0 -i 39 -k RTR
h -t 1.431983031 -s 0 -d 3 -p tcp -e 1540 -c 2 -a 0 -i 39 -k RTR
+ -t 1.431983031 -s 0 -d 3 -p tcp -e 1540 -c 2 -a 0 -i 40 -k RTR 
- -t 1.431983031 -s 0 -d 3 -p tcp -e 1540 -c 2 -a 0 -i 40 -k RTR
h -t 1.431983031 -s 0 -d 3 -p tcp -e 1540 -c 2 -a 0 -i 40 -k RTR
+ -t 1.434233782 -s 3 -d 0 -p ack -e 40 -c 2 -a 0 -i 38 -k RTR 
- -t 1.434233782 -s 3 -d 0 -p ack -e 40 -c 2 -a 0 -i 38 -k RTR
h -t 1.434233782 -s 3 -d 0 -p ack -e 40 -c 2 -a 0 -i 38 -k RTR
+ -t 1.448190507 -s 3 -d 4 -p tcp -e 1540 -c 2 -a 0 -i 23 -k RTR 
- -t 1.448190507 -s 3 -d 4 -p tcp -e 1540 -c 2 -a 0 -i 23 -k RTR
h -t 1.448190507 -s 3 -d 4 -p tcp -e 1540 -c 2 -a 0 -i 23 -k RTR
r -t 1.450056618 -s 0 -d 0 -p ack -e 40 -c 2 -a 0 -i 38 -k AGT
+ -t 1.450056618 -s 0 -d -1 -p tcp -e 1540 -c 2 -a 0 -i 41 -k AGT 
- -t 1.450056618 -s 0 -d -1 -p tcp -e 1540 -c 2 -a 0 -i 41 -k AGT
h -t 1.450056618 -s 0 -d -1 -p tcp -e 1540 -c 2 -a 0 -i 41 -k AGT
+ -t 1.450056618 -s 0 -d -1 -p tcp -e 1540 -c 2 -a 0 -i 42 -k AGT 
- -t 1.450056618 -s 0 -d -1 -p tcp -e 1540 -c 2 -a 0 -i 42 -k AGT
h -t 1.450056618 -s 0 -d -1 -p tcp -e 1540 -c 2 -a 0 -i 42 -k AGT
+ -t 1.450056618 -s 0 -d 3 -p tcp -e 1540 -c 2 -a 0 -i 41 -k RTR 
- -t 1.450056618 -s 0 -d 3 -p tcp -e 1540 -c 2 -a 0 -i 41 -k RTR
h -t 1.450056618 -s 0 -d 3 -p tcp -e 1540 -c 2 -a 0 -i 41 -k RTR
+ -t 1.450056618 -s 0 -d 3 -p tcp -e 1540 -c 2 -a 0 -i 42 -k RTR 
- -t 1.450056618 -s 0 -d 3 -p tcp -e 1540 -c 2 -a 0 -i 42 -k RTR
h -t 1.450056618 -s 0 -d 3 -p tcp -e 1540 -c 2 -a 0 -i 42 -k RTR
r -t 1.464322925 -s 4 -d 4 -p tcp -e 1540 -c 2 -a 0 -i 23 -k AGT
+ -t 1.464322925 -s 4 -d -1 -p ack -e 40 -c 2 -a 0 -i 43 -k AGT 
- -t 1.464322925 -s 4 -d -1 -p ack -e 40 -c 2 -a 0 -i 43 -k AGT
h -t 1.464322925 -s 4 -d -1 -p ack -e 40 -c 2 -a 0 -i 43 -k AGT
+ -t 1.464322925 -s 4 -d 3 -p ack -e 40 -c 2 -a 0 -i 43 -k RTR 
- -t 1.464322925 -s 4 -d 3 -p ack -e 40 -c 2 -a 0 -i 43 -k RTR
h -t 1.464322925 -s 4 -d 3 -p ack -e 40 -c 2 -a 0 -i 43 -k RTR
+ -t 1.478654184 -s 3 -d 4 -p tcp -e 1540 -c 2 -a 0 -i 24 -k RTR 
- -t 1.478654184 -s 3 -d 4 -p tcp -e 1540 -c 2 -a 0 -i 24 -k RTR
h -t 1.478654184 -s 3 -d 4 -p tcp -e 1540 -c 2 -a 0 -i 24 -k RTR
+ -t 1.480570231 -s 3 -d 0 -p ack -e 40 -c 2 -a 0 -i 43 -k RTR 
- -t 1.480570231 -s 3 -d 0 -p ack -e 40 -c 2 -a 0 -i 43 -k RTR
h -t 1.480570231 -s 3 -d 0 -p ack -e 40 -c 2 -a 0 -i 43 -k RTR
r -t 1.494615833 -s 4 -d 4 -p tcp -e 1540 -c 2 -a 0 -i 24 -k AGT
+ -t 1.494615833 -s 4 -d -1 -p ack -e 40 -c 2 -a 0 -i 44 -k AGT 
- -t 1.494615833 -s 4 -d -1 -p ack -e 40 -c 2 -a 0 -i 44 -k AGT
h -t 1.494615833 -s 4 -d -1 -p ack -e 40 -c 2 -a 0 -i 44 -k AGT
+ -t 1.494615833 -s 4 -d 3 -p ack -e 40 -c 2 -a 0 -i 44 -k RTR 
- -t 1.494615833 -s 4 -d 3 -p ack -e 40 -c 2 -a 0 -i 44 -k RTR
h -t 1.494615833 -s 4 -d 3 -p ack -e 40 -c 2 -a 0 -i 44 -k RTR
r -t 1.496482478 -s 0 -d 0 -p ack -e 40 -c 2 -a 0 -i 43 -k AGT
+ -t 1.496482478 -s 0 -d -1 -p tcp -e 1540 -c 2 -a 0 -i 45 -k AGT 
- -t 1.496482478 -s 0 -d -1 -p tcp -e 1540 -c 2 -a 0 -i 45 -k AGT
h -t 1.496482478 -s 0 -d -1 -p tcp -e 1540 -c 2 -a 0 -i 45 -k AGT
+ -t 1.496482478 -s 0 -d -1 -p tcp -e 1540 -c 2 -a 0 -i 46 -k AGT 
- -t 1.496482478 -s 0 -d -1 -p tcp -e 1540 -c 2 -a 0 -i 46 -k AGT
h -t 1.496482478 -s 0 -d -1 -p tcp -e 1540 -c 2 -a 0 -i 46 -k AGT
+ -t 1.496482478 -s 0 -d 3 -p tcp -e 1540 -c 2 -a 0 -i 45 -k RTR 
- -t 1.496482478 -s 0 -d 3 -p tcp -e 1540 -c 2 -a 0 -i 45 -k RTR
h -t 1.496482478 -s 0 -d 3 -p tcp -e 1540 -c 2 -a 0 -i 45 -k RTR
+ -t 1.496482478 -s 0 -d 3 -p tcp -e 1540 -c 2 -a 0 -i 46 -k RTR 
- -t 1.496482478 -s 0 -d 3 -p tcp -e 1540 -c 2 -a 0 -i 46 -k RTR
h -t 1.496482478 -s 0 -d 3 -p tcp -e 1540 -c 2 -a 0 -i 46 -k RTR
+ -t 1.510368589 -s 3 -d 4 -p tcp -e 1540 -c 2 -a 0 -i 25 -k RTR 
- -t 1.510368589 -s 3 -d 4 -p tcp -e 1540 -c 2 -a 0 -i 25 -k RTR
h -t 1.510368589 -s 3 -d 4 -p tcp -e 1540 -c 2 -a 0 -i 25 -k RTR
+ -t 1.512344636 -s 3 -d 0 -p ack -e 40 -c 2 -a 0 -i 44 -k RTR 
- -t 1.512344636 -s 3 -d 0 -p ack -e 40 -c 2 -a 0 -i 44 -k RTR
h -t 1.512344636 -s 3 -d 0 -p ack -e 40 -c 2 -a 0 -i 44 -k RTR
+ -t 1.526301361 -s 3 -d 4 -p tcp -e 1540 -c 2 -a 0 -i 29 -k RTR 
- -t 1.526301361 -s 3 -d 4 -p tcp -e 1540 -c 2 -a 0 -i 29 -k RTR
h -t 1.526301361 -s 3 -d 4 -p tcp -e 1540 -c 2 -a 0 -i 29 -k RTR
+ -t 1.540288175 -s 3 -d 4 -p tcp -e 1540 -c 2 -a 0 -i 30 -k RTR 
- -t 1.540288175 -s 3 -d 4 -p tcp -e 1540 -c 2 -a 0 -i 30 -k RTR
h -t 1.540288175 -s 3 -d 4 -p tcp -e 1540 -c 2 -a 0 -i 30 -k RTR
r -t 1.554233778 -s 4 -d 4 -p tcp -e 1540 -c 2 -a 0 -i 25 -k AGT
+ -t 1.554233778 -s 4 -d -1 -p ack -e 40 -c 2 -a 0 -i 47 -k AGT 
- -t 1.554233778 -s 4 -d -1 -p ack -e 40 -c 2 -a 0 -i 47 -k AGT
h -t 1.554233778 -s 4 -d -1 -p ack -e 40 -c 2 -a 0 -i 47 -k AGT
+ -t 1.554233778 -s 4 -d 3 -p ack -e 40 -c 2 -a 0 -i 47 -k RTR 
- -t 1.554233778 -s 4 -d 3 -p ack -e 40 -c 2 -a 0 -i 47 -k RTR
h -t 1.554233778 -s 4 -d 3 -p ack -e 40 -c 2 -a 0 -i 47 -k RTR
r -t 1.556180422 -s 0 -d 0 -p ack -e 40 -c 2 -a 0 -i 44 -k AGT
+ -t 1.556180422 -s 0 -d -1 -p tcp -e 1540 -c 2 -a 0 -i 48 -k AGT 
- -t 1.556180422 -s 0 -d -1 -p tcp -e 1540 -c 2 -a 0 -i 48 -k AGT
h -t 1.556180422 -s 0 -d -1 -p tcp -e 1540 -c 2 -a 0 -i 48 -k AGT
+ -t 1.556180422 -s 0 -d -1 -p tcp -e 1540 -c 2 -a 0 -i 49 -k AGT 
- -t 1.556180422 -s 0 -d -1 -p tcp -e 1540 -c 2 -a 0 -i 49 -k AGT
h -t 1.556180422 -s 0 -d -1 -p tcp -e 1540 -c 2 -a 0 -i 49 -k AGT
+ -t 1.556180422 -s 0 -d 3 -p tcp -e 1540 -c 2 -a 0 -i 48 -k RTR 
- -t 1.556180422 -s 0 -d 3 -p tcp -e 1540 -c 2 -a 0 -i 48 -k RTR
h -t 1.556180422 -s 0 -d 3 -p tcp -e 1540 -c 2 -a 0 -i 48 -k RTR
+ -t 1.556180422 -s 0 -d 3 -p tcp -e 1540 -c 2 -a 0 -i 49 -k RTR 