M 1.00000 0 (988.00, 526.00, 0.00), (305.00, 446.00), 6.00
M 1.00000 1 (144.00, 833.00, 0.00), (488.00, 466.00), 9.00
M 1.00000 2 (636.00, 939.00, 0.00), (226.00, 801.00), 1.00
M 1.00000 3 (805.00, 632.00, 0.00), (361.00, 913.00), 4.00
M 1.00000 4 (764.00, 787.00, 0.00), (399.00, 913.00), 5.00
s 1.000000000 _0_ AGT  --- 0 tcp 40 [0 0 0 0] ------- [0:0 4:0 32 0] [0 0] 0 0
r 1.000000000 _0_ RTR  --- 0 tcp 40 [0 0 0 0] ------- [0:0 4:0 32 0] [0 0] 0 0
s 1.000000000 _0_ RTR  --- 0 AODV 48 [0 0 0 0] ------- [0:255 -1:255 30 0] [0x2 1 1 [4 0] [0 4]] (REQUEST)
r 1.000988705 _3_ RTR  --- 0 AODV 48 [0 ffffffff 0 800] ------- [0:255 -1:255 30 0] [0x2 1 1 [4 0] [0 4]] (REQUEST)
s 1.001869932 _3_ RTR  --- 0 AODV 48 [0 ffffffff 0 800] ------- [3:255 -1:255 29 0] [0x2 2 1 [4 0] [0 4]] (REQUEST)
r 1.003138466 _4_ RTR  --- 0 AODV 48 [0 ffffffff 3 800] ------- [3:255 -1:255 29 0] [0x2 2 1 [4 0] [0 4]] (REQUEST)
s 1.003138466 _4_ RTR  --- 0 AODV 44 [0 0 0 0] ------- [4:255 0:255 30 3] [0x4 1 [4 4] 10.000000] (REPLY)
r 1.003138637 _0_ RTR  --- 0 AODV 48 [0 ffffffff 3 800] ------- [3:255 -1:255 29 0] [0x2 2 1 [4 0] [0 4]] (REQUEST)
r 1.007945207 _3_ RTR  --- 0 AODV 44 [13a 3 4 800] ------- [4:255 0:255 30 3] [0x4 1 [4 4] 10.000000] (REPLY)
f 1.007945207 _3_ RTR  --- 0 AODV 44 [13a 3 4 800] ------- [4:255 0:255 29 0] [0x4 2 [4 4] 10.000000] (REPLY)
r 1.013057142 _0_ RTR  --- 0 AODV 44 [13a 0 3 800] ------- [4:255 0:255 29 0] [0x4 2 [4 4] 10.000000] (REPLY)
s 1.013057142 _0_ RTR  --- 0 tcp 40 [0 0 0 0] ------- [0:0 4:0 30 3] [0 0] 0 0
r 1.015123256 _3_ RTR  --- 0 tcp 40 [13a 3 0 800] ------- [0:0 4:0 30 3] [0 0] 1 0
f 1.015123256 _3_ RTR  --- 0 tcp 40 [13a 3 0 800] ------- [0:0 4:0 29 4] [0 0] 1 0
r 1.017428860 _4_ AGT  --- 0 tcp 40 [13a 4 3 800] ------- [0:0 4:0 29 4] [0 0] 2 0
s 1.017428860 _4_ AGT  --- 1 ack 40 [0 0 0 0] ------- [4:0 0:0 32 0] [0 0] 0 0
r 1.017428860 _4_ RTR  --- 1 ack 40 [0 0 0 0] ------- [4:0 0:0 32 0] [0 0] 0 0
s 1.017428860 _4_ RTR  --- 1 ack 40 [0 0 0 0] ------- [4:0 0:0 30 3] [0 0] 0 0
r 1.019574463 _3_ RTR  --- 1 ack 40 [13a 3 4 800] ------- [4:0 0:0 30 3] [0 0] 1 0
f 1.019574463 _3_ RTR  --- 1 ack 40 [13a 3 4 800] ------- [4:0 0:0 29 0] [0 0] 1 0
r 1.021620577 _0_ AGT  --- 1 ack 40 [13a 0 3 800] ------- [4:0 0:0 29 0] [0 0] 2 0
s 1.021620577 _0_ AGT  --- 2 tcp 1540 [0 0 0 0] ------- [0:0 4:0 32 0] [1 0] 0 0
r 1.021620577 _0_ RTR  --- 2 tcp 1540 [0 0 0 0] ------- [0:0 4:0 32 0] [1 0] 0 0
s 1.021620577 _0_ AGT  --- 3 tcp 1540 [0 0 0 0] ------- [0:0 4:0 32 0] [2 0] 0 0
r 1.021620577 _0_ RTR  --- 3 tcp 1540 [0 0 0 0] ------- [0:0 4:0 32 0] [2 0] 0 0
s 1.021620577 _0_ RTR  --- 2 tcp 1540 [0 0 0 0] ------- [0:0 4:0 30 3] [1 0] 0 0
s 1.021620577 _0_ RTR  --- 3 tcp 1540 [0 0 0 0] ------- [0:0 4:0 30 3] [2 0] 0 0
r 1.035686692 _3_ RTR  --- 2 tcp 1540 [13a 3 0 800] ------- [0:0 4:0 30 3] [1 0] 1 0
f 1.035686692 _3_ RTR  --- 2 tcp 1540 [13a 3 0 800] ------- [0:0 4:0 29 4] [1 0] 1 0
r 1.049693512 _3_ RTR  --- 3 tcp 1540 [13a 3 0 800] ------- [0:0 4:0 30 3] [2 0] 1 0
f 1.049693512 _3_ RTR  --- 3 tcp 1540 [13a 3 0 800] ------- [0:0 4:0 29 4] [2 0] 1 0
r 1.063559115 _4_ AGT  --- 2 tcp 1540 [13a 4 3 800] ------- [0:0 4:0 29 4] [1 0] 2 0
s 1.063559115 _4_ AGT  --- 4 ack 40 [0 0 0 0] ------- [4:0 0:0 32 0] [1 0] 0 0
r 1.063559115 _4_ RTR  --- 4 ack 40 [0 0 0 0] ------- [4:0 0:0 32 0] [1 0] 0 0
s 1.063559115 _4_ RTR  --- 4 ack 40 [0 0 0 0] ------- [4:0 0:0 30 3] [1 0] 0 0
r 1.065784718 _3_ RTR  --- 4 ack 40 [13a 3 4 800] ------- [4:0 0:0 30 3] [1 0] 1 0
f 1.065784718 _3_ RTR  --- 4 ack 40 [13a 3 4 800] ------- [4:0 0:0 29 0] [1 0] 1 0
r 1.079770321 _4_ AGT  --- 3 tcp 1540 [13a 4 3 800] ------- [0:0 4:0 29 4] [2 0] 2 0
s 1.079770321 _4_ AGT  --- 5 ack 40 [0 0 0 0] ------- [4:0 0:0 32 0] [2 0] 0 0
r 1.079770321 _4_ RTR  --- 5 ack 40 [0 0 0 0] ------- [4:0 0:0 32 0] [2 0] 0 0
s 1.079770321 _4_ RTR  --- 5 ack 40 [0 0 0 0] ------- [4:0 0:0 30 3] [2 0] 0 0
r 1.081636970 _0_ AGT  --- 4 ack 40 [13a 0 3 800] ------- [4:0 0:0 29 0] [1 0] 2 0
s 1.081636970 _0_ AGT  --- 6 tcp 1540 [0 0 0 0] ------- [0:0 4:0 32 0] [3 0] 0 0
r 1.081636970 _0_ RTR  --- 6 tcp 1540 [0 0 0 0] ------- [0:0 4:0 32 0] [3 0] 0 0
s 1.081636970 _0_ AGT  --- 7 tcp 1540 [0 0 0 0] ------- [0:0 4:0 32 0] [4 0] 0 0
r 1.081636970 _0_ RTR  --- 7 tcp 1540 [0 0 0 0] ------- [0:0 4:0 32 0] [4 0] 0 0
s 1.081636970 _0_ RTR  --- 6 tcp 1540 [0 0 0 0] ------- [0:0 4:0 30 3] [3 0] 0 0
s 1.081636970 _0_ RTR  --- 7 tcp 1540 [0 0 0 0] ------- [0:0 4:0 30 3] [4 0] 0 0
r 1.095903084 _3_ RTR  --- 6 tcp 1540 [13a 3 0 800] ------- [0:0 4:0 30 3] [3 0] 1 0
f 1.095903084 _3_ RTR  --- 6 tcp 1540 [13a 3 0 800] ------- [0:0 4:0 29 4] [3 0] 1 0
r 1.109869903 _3_ RTR  --- 7 tcp 1540 [13a 3 0 800] ------- [0:0 4:0 30 3] [4 0] 1 0
f 1.109869903 _3_ RTR  --- 7 tcp 1540 [13a 3 0 800] ------- [0:0 4:0 29 4] [4 0] 1 0
r 1.111785948 _3_ RTR  --- 5 ack 40 [13a 3 4 800] ------- [4:0 0:0 30 3] [2 0] 1 0
f 1.111785948 _3_ RTR  --- 5 ack 40 [13a 3 4 800] ------- [4:0 0:0 29 0] [2 0] 1 0
r 1.125751551 _4_ AGT  --- 6 tcp 1540 [13a 4 3 800] ------- [0:0 4:0 29 4] [3 0] 2 0
s 1.125751551 _4_ AGT  --- 8 ack 40 [0 0 0 0] ------- [4:0 0:0 32 0] [3 0] 0 0
r 1.125751551 _4_ RTR  --- 8 ack 40 [0 0 0 0] ------- [4:0 0:0 32 0] [3 0] 0 0
s 1.125751551 _4_ RTR  --- 8 ack 40 [0 0 0 0] ------- [4:0 0:0 30 3] [3 0] 0 0
r 1.127737154 _3_ RTR  --- 8 ack 40 [13a 3 4 800] ------- [4:0 0:0 30 3] [3 0] 1 0
f 1.127737154 _3_ RTR  --- 8 ack 40 [13a 3 4 800] ------- [4:0 0:0 29 0] [3 0] 1 0
r 1.141622757 _4_ AGT  --- 7 tcp 1540 [13a 4 3 800] ------- [0:0 4:0 29 4] [4 0] 2 0
s 1.141622757 _4_ AGT  --- 9 ack 40 [0 0 0 0] ------- [4:0 0:0 32 0] [4 0] 0 0
r 1.141622757 _4_ RTR  --- 9 ack 40 [0 0 0 0] ------- [4:0 0:0 32 0] [4 0] 0 0
s 1.141622757 _4_ RTR  --- 9 ack 40 [0 0 0 0] ------- [4:0 0:0 30 3] [4 0] 0 0
r 1.143508360 _3_ RTR  --- 9 ack 40 [13a 3 4 800] ------- [4:0 0:0 30 3] [4 0] 1 0
f 1.143508360 _3_ RTR  --- 9 ack 40 [13a 3 4 800] ------- [4:0 0:0 29 0] [4 0] 1 0
r 1.145814474 _0_ AGT  --- 5 ack 40 [13a 0 3 800] ------- [4:0 0:0 29 0] [2 0] 2 0
s 1.145814474 _0_ AGT  --- 10 tcp 1540 [0 0 0 0] ------- [0:0 4:0 32 0] [5 0] 0 0
r 1.145814474 _0_ RTR  --- 10 tcp 1540 [0 0 0 0] ------- [0:0 4:0 32 0] [5 0] 0 0
s 1.145814474 _0_ AGT  --- 11 tcp 1540 [0 0 0 0] ------- [0:0 4:0 32 0] [6 0] 0 0
r 1.145814474 _0_ RTR  --- 11 tcp 1540 [0 0 0 0] ------- [0:0 4:0 32 0] [6 0] 0 0
s 1.145814474 _0_ RTR  --- 10 tcp 1540 [0 0 0 0] ------- [0:0 4:0 30 3] [5 0] 0 0
s 1.145814474 _0_ RTR  --- 11 tcp 1540 [0 0 0 0] ------- [0:0 4:0 30 3] [6 0] 0 0
r 1.159840588 _3_ RTR  --- 10 tcp 1540 [13a 3 0 800] ------- [0:0 4:0 30 3] [5 0] 1 0
f 1.159840588 _3_ RTR  --- 10 tcp 1540 [13a 3 0 800] ------- [0:0 4:0 29 4] [5 0] 1 0
r 1.173727406 _3_ RTR  --- 11 tcp 1540 [13a 3 0 800] ------- [0:0 4:0 30 3] [6 0] 1 0
f 1.173727406 _3_ RTR  --- 11 tcp 1540 [13a 3 0 800] ------- [0:0 4:0 29 4] [6 0] 1 0
r 1.175893519 _0_ AGT  --- 8 ack 40 [13a 0 3 800] ------- [4:0 0:0 29 0] [3 0] 2 0
s 1.175893519 _0_ AGT  --- 12 tcp 1540 [0 0 0 0] ------- [0:0 4:0 32 0] [7 0] 0 0
r 1.175893519 _0_ RTR  --- 12 tcp 1540 [0 0 0 0] ------- [0:0 4:0 32 0] [7 0] 0 0
s 1.175893519 _0_ AGT  --- 13 tcp 1540 [0 0 0 0] ------- [0:0 4:0 32 0] [8 0] 0 0
r 1.175893519 _0_ RTR  --- 13 tcp 1540 [0 0 0 0] ------- [0:0 4:0 32 0] [8 0] 0 0
s 1.175893519 _0_ RTR  --- 12 tcp 1540 [0 0 0 0] ------- [0:0 4:0 30 3] [7 0] 0 0
s 1.175893519 _0_ RTR  --- 13 tcp 1540 [0 0 0 0] ------- [0:0 4:0 30 3] [8 0] 0 0
r 1.190059633 _3_ RTR  --- 12 tcp 1540 [13a 3 0 800] ------- [0:0 4:0 30 3] [7 0] 1 0
f 1.190059633 _3_ RTR  --- 12 tcp 1540 [13a 3 0 800] ------- [0:0 4:0 29 4] [7 0] 1 0
r 1.192065746 _0_ AGT  --- 9 ack 40 [13a 0 3 800] ------- [4:0 0:0 29 0] [4 0] 2 0
s 1.192065746 _0_ AGT  --- 14 tcp 1540 [0 0 0 0] ------- [0:0 4:0 32 0] [9 0] 0 0
r 1.192065746 _0_ RTR  --- 14 tcp 1540 [0 0 0 0] ------- [0:0 4:0 32 0] [9 0] 0 0
s 1.192065746 _0_ AGT  --- 15 tcp 1540 [0 0 0 0] ------- [0:0 4:0 32 0] [10 0] 0 0
r 1.192065746 _0_ RTR  --- 15 tcp 1540 [0 0 0 0] ------- [0:0 4:0 32 0] [10 0] 0 0
s 1.192065746 _0_ RTR  --- 14 tcp 1540 [0 0 0 0] ------- [0:0 4:0 30 3] [9 0] 0 0
s 1.192065746 _0_ RTR  --- 15 tcp 1540 [0 0 0 0] ------- [0:0 4:0 30 3] [10 0] 0 0
r 1.206011859 _3_ RTR  --- 13 tcp 1540 [13a 3 0 800] ------- [0:0 4:0 30 3] [8 0] 1 0
f 1.206011859 _3_ RTR  --- 13 tcp 1540 [13a 3 0 800] ------- [0:0 4:0 29 4] [8 0] 1 0
r 1.219917462 _4_ AGT  --- 10 tcp 1540 [13a 4 3 800] ------- [0:0 4:0 29 4] [5 0] 2 0
s 1.219917462 _4_ AGT  --- 16 ack 40 [0 0 0 0] ------- [4:0 0:0 32 0] [5 0] 0 0
r 1.219917462 _4_ RTR  --- 16 ack 40 [0 0 0 0] ------- [4:0 0:0 32 0] [5 0] 0 0
s 1.219917462 _4_ RTR  --- 16 ack 40 [0 0 0 0] ------- [4:0 0:0 30 3] [5 0] 0 0
r 1.233743599 _4_ AGT  --- 11 tcp 1540 [13a 4 3 800] ------- [0:0 4:0 29 4] [6 0] 2 0
s 1.233743599 _4_ AGT  --- 17 ack 40 [0 0 0 0] ------- [4:0 0:0 32 0] [6 0] 0 0
r 1.233743599 _4_ RTR  --- 17 ack 40 [0 0 0 0] ------- [4:0 0:0 32 0] [6 0] 0 0
s 1.233743599 _4_ RTR  --- 17 ack 40 [0 0 0 0] ------- [4:0 0:0 30 3] [6 0] 0 0
r 1.247789737 _4_ AGT  --- 12 tcp 1540 [13a 4 3 800] ------- [0:0 4:0 29 4] [7 0] 2 0
s 1.247789737 _4_ AGT  --- 18 ack 40 [0 0 0 0] ------- [4:0 0:0 32 0] [7 0] 0 0
r 1.247789737 _4_ RTR  --- 18 ack 40 [0 0 0 0] ------- [4:0 0:0 32 0] [7 0] 0 0
s 1.247789737 _4_ RTR  --- 18 ack 40 [0 0 0 0] ------- [4:0 0:0 30 3] [7 0] 0 0
r 1.249875340 _3_ RTR  --- 16 ack 40 [13a 3 4 800] ------- [4:0 0:0 30 3] [5 0] 1 0
f 1.249875340 _3_ RTR  --- 16 ack 40 [13a 3 4 800] ------- [4:0 0:0 29 0] [5 0] 1 0
r 1.263780943 _4_ AGT  --- 13 tcp 1540 [13a 4 3 800] ------- [0:0 4:0 29 4] [8 0] 2 0
s 1.263780943 _4_ AGT  --- 19 ack 40 [0 0 0 0] ------- [4:0 0:0 32 0] [8 0] 0 0
r 1.263780943 _4_ RTR  --- 19 ack 40 [0 0 0 0] ------- [4:0 0:0 32 0] [8 0] 0 0
s 1.263780943 _4_ RTR  --- 19 ack 40 [0 0 0 0] ------- [4:0 0:0 30 3] [8 0] 0 0
r 1.265706546 _3_ RTR  --- 17 ack 40 [13a 3 4 800] ------- [4:0 0:0 30 3] [6 0] 1 0
f 1.265706546 _3_ RTR  --- 17 ack 40 [13a 3 4 800] ------- [4:0 0:0 29 0] [6 0] 1 0
r 1.267612683 _3_ RTR  --- 18 ack 40 [13a 3 4 800] ------- [4:0 0:0 30 3] [7 0] 1 0
f 1.267612683 _3_ RTR  --- 18 ack 40 [13a 3 4 800] ------- [4:0 0:0 29 0] [7 0] 1 0
r 1.269498796 _0_ AGT  --- 16 ack 40 [13a 0 3 800] ------- [4:0 0:0 29 0] [5 0] 2 0
s 1.269498796 _0_ AGT  --- 20 tcp 1540 [0 0 0 0] ------- [0:0 4:0 32 0] [11 0] 0 0
r 1.269498796 _0_ RTR  --- 20 tcp 1540 [0 0 0 0] ------- [0:0 4:0 32 0] [11 0] 0 0
s 1.269498796 _0_ AGT  --- 21 tcp 1540 [0 0 0 0] ------- [0:0 4:0 32 0] [12 0] 0 0
r 1.269498796 _0_ RTR  --- 21 tcp 1540 [0 0 0 0] ------- [0:0 4:0 32 0] [12 0] 0 0
s 1.269498796 _0_ RTR  --- 20 tcp 1540 [0 0 0 0] ------- [0:0 4:0 30 3] [11 0] 0 0
s 1.269498796 _0_ RTR  --- 21 tcp 1540 [0 0 0 0] ------- [0:0 4:0 30 3] [12 0] 0 0
r 1.271325612 _0_ AGT  --- 17 ack 40 [13a 0 3 800] ------- [4:0 0:0 29 0] [6 0] 2 0
s 1.271325612 _0_ AGT  --- 22 tcp 1540 [0 0 0 0] ------- [0:0 4:0 32 0] [13 0] 0 0
r 1.271325612 _0_ RTR  --- 22 tcp 1540 [0 0 0 0] ------- [0:0 4:0 32 0] [13 0] 0 0
s 1.271325612 _0_ AGT  --- 23 tcp 1540 [0 0 0 0] ------- [0:0 4:0 32 0] [14 0] 0 0
r 1.271325612 _0_ RTR  --- 23 tcp 1540 [0 0 0 0] ------- [0:0 4:0 32 0] [14 0] 0 0
s 1.271325612 _0_ RTR  --- 22 tcp 1540 [0 0 0 0] ------- [0:0 4:0 30 3] [13 0] 0 0
s 1.271325612 _0_ RTR  --- 23 tcp 1540 [0 0 0 0] ------- [0:0 4:0 30 3] [14 0] 0 0
r 1.285331725 _3_ RTR  --- 14 tcp 1540 [13a 3 0 800] ------- [0:0 4:0 30 3] [9 0] 1 0
f 1.285331725 _3_ RTR  --- 14 tcp 1540 [13a 3 0 800] ------- [0:0 4:0 29 4] [9 0] 1 0
r 1.287237838 _0_ AGT  --- 18 ack 40 [13a 0 3 800] ------- [4:0 0:0 29 0] [7 0] 2 0
s 1.287237838 _0_ AGT  --- 24 tcp 1540 [0 0 0 0] ------- [0:0 4:0 32 0] [15 0] 0 0
r 1.287237838 _0_ RTR  --- 24 tcp 1540 [0 0 0 0] ------- [0:0 4:0 32 0] [15 0] 0 0
s 1.287237838 _0_ AGT  --- 25 tcp 1540 [0 0 0 0] ------- [0:0 4:0 32 0] [16 0] 0 0
r 1.287237838 _0_ RTR  --- 25 tcp 1540 [0 0 0 0] ------- [0:0 4:0 32 0] [16 0] 0 0
s 1.287237838 _0_ RTR  --- 24 tcp 1540 [0 0 0 0] ------- [0:0 4:0 30 3] [15 0] 0 0
s 1.287237838 _0_ RTR  --- 25 tcp 1540 [0 0 0 0] ------- [0:0 4:0 30 3] [16 0] 0 0
r 1.301303950 _3_ RTR  --- 15 tcp 1540 [13a 3 0 800] ------- [0:0 4:0 30 3] [10 0] 1 0
f 1.301303950 _3_ RTR  --- 15 tcp 1540 [13a 3 0 800] ------- [0:0 4:0 29 4] [10 0] 1 0
r 1.315150767 _3_ RTR  --- 20 tcp 1540 [13a 3 0 800] ------- [0:0 4:0 30 3] [11 0] 1 0
f 1.315150767 _3_ RTR  --- 20 tcp 1540 [13a 3 0 800] ------- [0:0 4:0 29 4] [11 0] 1 0
r 1.329016370 _4_ AGT  --- 14 tcp 1540 [13a 4 3 800] ------- [0:0 4:0 29 4] [9 0] 2 0
s 1.329016370 _4_ AGT  --- 26 ack 40 [0 0 0 0] ------- [4:0 0:0 32 0] [9 0] 0 0
r 1.329016370 _4_ RTR  --- 26 ack 40 [0 0 0 0] ------- [4:0 0:0 32 0] [9 0] 0 0
s 1.329016370 _4_ RTR  --- 26 ack 40 [0 0 0 0] ------- [4:0 0:0 30 3] [9 0] 0 0
r 1.331081972 _3_ RTR  --- 19 ack 40 [13a 3 4 800] ------- [4:0 0:0 30 3] [8 0] 1 0
f 1.331081972 _3_ RTR  --- 19 ack 40 [13a 3 4 800] ------- [4:0 0:0 29 0] [8 0] 1 0
r 1.344927575 _4_ AGT  --- 15 tcp 1540 [13a 4 3 800] ------- [0:0 4:0 29 4] [10 0] 2 0
s 1.344927575 _4_ AGT  --- 27 ack 40 [0 0 0 0] ------- [4:0 0:0 32 0] [10 0] 0 0
r 1.344927575 _4_ RTR  --- 27 ack 40 [0 0 0 0] ------- [4:0 0:0 32 0] [10 0] 0 0
s 1.344927575 _4_ RTR  --- 27 ack 40 [0 0 0 0] ------- [4:0 0:0 30 3] [10 0] 0 0
r 1.346873178 _3_ RTR  --- 26 ack 40 [13a 3 4 800] ------- [4:0 0:0 30 3] [9 0] 1 0
f 1.346873178 _3_ RTR  --- 26 ack 40 [13a 3 4 800] ------- [4:0 0:0 29 0] [9 0] 1 0
r 1.348739315 _3_ RTR  --- 27 ack 40 [13a 3 4 800] ------- [4:0 0:0 30 3] [10 0] 1 0
f 1.348739315 _3_ RTR  --- 27 ack 40 [13a 3 4 800] ------- [4:0 0:0 29 0] [10 0] 1 0
r 1.362724918 _4_ AGT  --- 20 tcp 1540 [13a 4 3 800] ------- [0:0 4:0 29 4] [11 0] 2 0
s 1.362724918 _4_ AGT  --- 28 ack 40 [0 0 0 0] ------- [4:0 0:0 32 0] [11 0] 0 0
r 1.362724918 _4_ RTR  --- 28 ack 40 [0 0 0 0] ------- [4:0 0:0 32 0] [11 0] 0 0
s 1.362724918 _4_ RTR  --- 28 ack 40 [0 0 0 0] ------- [4:0 0:0 30 3] [11 0] 0 0
r 1.364671564 _0_ AGT  --- 19 ack 40 [13a 0 3 800] ------- [4:0 0:0 29 0] [8 0] 2 0
s 1.364671564 _0_ AGT  --- 29 tcp 1540 [0 0 0 0] ------- [0:0 4:0 32 0] [17 0] 0 0
r 1.364671564 _0_ RTR  --- 29 tcp 1540 [0 0 0 0] ------- [0:0 4:0 32 0] [17 0] 0 0
s 1.364671564 _0_ AGT  --- 30 tcp 1540 [0 0 0 0] ------- [0:0 4:0 32 0] [18 0] 0 0
r 1.364671564 _0_ RTR  --- 30 tcp 1540 [0 0 0 0] ------- [0:0 4:0 32 0] [18 0] 0 0
s 1.364671564 _0_ RTR  --- 29 tcp 1540 [0 0 0 0] ------- [0:0 4:0 30 3] [17 0] 0 0
s 1.364671564 _0_ RTR  --- 30 tcp 1540 [0 0 0 0] ------- [0:0 4:0 30 3] [18 0] 0 0
r 1.366698380 _0_ AGT  --- 26 ack 40 [13a 0 3 800] ------- [4:0 0:0 29 0] [9 0] 2 0
s 1.366698380 _0_ AGT  --- 31 tcp 1540 [0 0 0 0] ------- [0:0 4:0 32 0] [19 0] 0 0
r 1.366698380 _0_ RTR  --- 31 tcp 1540 [0 0 0 0] ------- [0:0 4:0 32 0] [19 0] 0 0
s 1.366698380 _0_ AGT  --- 32 tcp 1540 [0 0 0 0] ------- [0:0 4:0 32 0] [20 0] 0 0
r 1.366698380 _0_ RTR  --- 32 tcp 1540 [0 0 0 0] ------- [0:0 4:0 32 0] [20 0] 0 0
s 1.366698380 _0_ RTR  --- 31 tcp 1540 [0 0 0 0] ------- [0:0 4:0 30 3] [19 0] 0 0
s 1.366698380 _0_ RTR  --- 32 tcp 1540 [0 0 0 0] ------- [0:0 4:0 30 3] [20 0] 0 0
r 1.368625196 _0_ AGT  --- 27 ack 40 [13a 0 3 800] ------- [4:0 0:0 29 0] [10 0] 2 0
s 1.368625196 _0_ AGT  --- 33 tcp 1540 [0 0 0 0] ------- [0:0 4:0 32 0] [21 0] 0 0
r 1.368625196 _0_ RTR  --- 33 tcp 1540 [0 0 0 0] ------- [0:0 4:0 32 0] [21 0] 0 0
s 1.368625196 _0_ AGT  --- 34 tcp 1540 [0 0 0 0] ------- [0:0 4:0 32 0] [22 0] 0 0
r 1.368625196 _0_ RTR  --- 34 tcp 1540 [0 0 0 0] ------- [0:0 4:0 32 0] [22 0] 0 0
s 1.368625196 _0_ RTR  --- 33 tcp 1540 [0 0 0 0] ------- [0:0 4:0 30 3] [21 0] 0 0
s 1.368625196 _0_ RTR  --- 34 tcp 1540 [0 0 0 0] ------- [0:0 4:0 30 3] [22 0] 0 0
r 1.382511308 _3_ RTR  --- 21 tcp 1540 [13a 3 0 800] ------- [0:0 4:0 30 3] [12 0] 1 0
f 1.382511308 _3_ RTR  --- 21 tcp 1540 [13a 3 0 800] ------- [0:0 4:0 29 4] [12 0] 1 0
r 1.396376910 _4_ AGT  --- 21 tcp 1540 [13a 4 3 800] ------- [0:0 4:0 29 4] [12 0] 2 0
s 1.396376910 _4_ AGT  --- 35 ack 40 [0 0 0 0] ------- [4:0 0:0 32 0] [12 0] 0 0
r 1.396376910 _4_ RTR  --- 35 ack 40 [0 0 0 0] ------- [4:0 0:0 32 0] [12 0] 0 0
s 1.396376910 _4_ RTR  --- 35 ack 40 [0 0 0 0] ------- [4:0 0:0 30 3] [12 0] 0 0
r 1.398402513 _3_ RTR  --- 28 ack 40 [13a 3 4 800] ------- [4:0 0:0 30 3] [11 0] 1 0
f 1.398402513 _3_ RTR  --- 28 ack 40 [13a 3 4 800] ------- [4:0 0:0 29 0] [11 0] 1 0
r 1.400248625 _0_ AGT  --- 28 ack 40 [13a 0 3 800] ------- [4:0 0:0 29 0] [11 0] 2 0
s 1.400248625 _0_ AGT  --- 36 tcp 1540 [0 0 0 0] ------- [0:0 4:0 32 0] [23 0] 0 0
r 1.400248625 _0_ RTR  --- 36 tcp 1540 [0 0 0 0] ------- [0:0 4:0 32 0] [23 0] 0 0
s 1.400248625 _0_ AGT  --- 37 tcp 1540 [0 0 0 0] ------- [0:0 4:0 32 0] [24 0] 0 0
r 1.400248625 _0_ RTR  --- 37 tcp 1540 [0 0 0 0] ------- [0:0 4:0 32 0] [24 0] 0 0
s 1.400248625 _0_ RTR  --- 36 tcp 1540 [0 0 0 0] ------- [0:0 4:0 30 3] [23 0] 0 0
s 1.400248625 _0_ RTR  --- 37 tcp 1540 [0 0 0 0] ------- [0:0 4:0 30 3] [24 0] 0 0
r 1.414314736 _3_ RTR  --- 22 tcp 1540 [13a 3 0 800] ------- [0:0 4:0 30 3] [13 0] 1 0
f 1.414314736 _3_ RTR  --- 22 tcp 1540 [13a 3 0 800] ------- [0:0 4:0 29 4] [13 0] 1 0
r 1.416250783 _3_ RTR  --- 35 ack 40 [13a 3 4 800] ------- [4:0 0:0 30 3] [12 0] 1 0
f 1.416250783 _3_ RTR  --- 35 ack 40 [13a 3 4 800] ------- [4:0 0:0 29 0] [12 0] 1 0
r 1.430096386 _4_ AGT  --- 22 tcp 1540 [13a 4 3 800] ------- [0:0 4:0 29 4] [13 0] 2 0
s 1.430096386 _4_ AGT  --- 38 ack 40 [0 0 0 0] ------- [4:0 0:0 32 0] [13 0] 0 0
r 1.430096386 _4_ RTR  --- 38 ack 40 [0 0 0 0] ------- [4:0 0:0 32 0] [13 0] 0 0
s 1.430096386 _4_ RTR  --- 38 ack 40 [0 0 0 0] ------- [4:0 0:0 30 3] [13 0] 0 0
r 1.431983031 _0_ AGT  --- 35 ack 40 [13a 0 3 800] ------- [4:0 0:0 29 0] [12 0] 2 0
s 1.431983031 _0_ AGT  --- 39 tcp 1540 [0 0 0 0] ------- [0:0 4:0 32 0] [25 0] 0 0
r 1.431983031 _0_ RTR  --- 39 tcp 1540 [0 0 0 0] ------- [0:0 4:0 32 0] [25 0] 0 0
s 1.431983031 _0_ AGT  --- 40 tcp 1540 [0 0 0 0] ------- [0:0 4:0 32 0] [26 0] 0 0
r 1.431983031 _0_ RTR  --- 40 tcp 1540 [0 0 0 0] ------- [0:0 4:0 32 0] [26 0] 0 0
s 1.431983031 _0_ RTR  --- 39 tcp 1540 [0 0 0 0] ------- [0:0 4:0 30 3] [25 0] 0 0
s 1.431983031 _0_ RTR  --- 40 tcp 1540 [0 0 0 0] ------- [0:0 4:0 30 3] [26 0] 0 0
r 1.434233782 _3_ RTR  --- 38 ack 40 [13a 3 4 800] ------- [4:0 0:0 30 3] [13 0] 1 0
f 1.434233782 _3_ RTR  --- 38 ack 40 [13a 3 4 800] ------- [4:0 0:0 29 0] [13 0] 1 0
r 1.448190507 _3_ RTR  --- 23 tcp 1540 [13a 3 0 800] ------- [0:0 4:0 30 3] [14 0] 1 0
f 1.448190507 _3_ RTR  --- 23 tcp 1540 [13a 3 0 800] ------- [0:0 4:0 29 4] [14 0] 1 0
r 1.450056618 _0_ AGT  --- 38 ack 40 [13a 0 3 800] ------- [4:0 0:0 29 0] [13 0] 2 0
s 1.450056618 _0_ AGT  --- 41 tcp 1540 [0 0 0 0] ------- [0:0 4:0 32 0] [27 0] 0 0
r 1.450056618 _0_ RTR  --- 41 tcp 1540 [0 0 0 0] ------- [0:0 4:0 32 0] [27 0] 0 0
s 1.450056618 _0_ AGT  --- 42 tcp 1540 [0 0 0 0] ------- [0:0 4:0 32 0] [28 0] 0 0
r 1.450056618 _0_ RTR  --- 42 tcp 1540 [0 0 0 0] ------- [0:0 4:0 32 0] [28 0] 0 0
s 1.450056618 _0_ RTR  --- 41 tcp 1540 [0 0 0 0] ------- [0:0 4:0 30 3] [27 0] 0 0
s 1.450056618 _0_ RTR  --- 42 tcp 1540 [0 0 0 0] ------- [0:0 4:0 30 3] [28 0] 0 0
r 1.464322925 _4_ AGT  --- 23 tcp 1540 [13a 4 3 800] ------- [0:0 4:0 29 4] [14 0] 2 0
s 1.464322925 _4_ AGT  --- 43 ack 40 [0 0 0 0] ------- [4:0 0:0 32 0] [14 0] 0 0
r 1.464322925 _4_ RTR  --- 43 ack 40 [0 0 0 0] ------- [4:0 0:0 32 0] [14 0] 0 0
s 1.464322925 _4_ RTR  --- 43 ack 40 [0 0 0 0] ------- [4:0 0:0 30 3] [14 0] 0 0
r 1.478654184 _3_ RTR  --- 24 tcp 1540 [13a 3 0 800] ------- [0:0 4:0 30 3] [15 0] 1 0
f 1.478654184 _3_ RTR  --- 24 tcp 1540 [13a 3 0 800] ------- [0:0 4:0 29 4] [15 0] 1 0
r 1.480570231 _3_ RTR  --- 43 ack 40 [13a 3 4 800] ------- [4:0 0:0 30 3] [14 0] 1 0
f 1.480570231 _3_ RTR  --- 43 ack 40 [13a 3 4 800] ------- [4:0 0:0 29 0] [14 0] 1 0
r 1.494615833 _4_ AGT  --- 24 tcp 1540 [13a 4 3 800] ------- [0:0 4:0 29 4] [15 0] 2 0
s 1.494615833 _4_ AGT  --- 44 ack 40 [0 0 0 0] ------- [4:0 0:0 32 0] [15 0] 0 0
r 1.494615833 _4_ RTR  --- 44 ack 40 [0 0 0 0] ------- [4:0 0:0 32 0] [15 0] 0 0
s 1.494615833 _4_ RTR  --- 44 ack 40 [0 0 0 0] ------- [4:0 0:0 30 3] [15 0] 0 0
r 1.496482478 _0_ AGT  --- 43 ack 40 [13a 0 3 800] ------- [4:0 0:0 29 0] [14 0] 2 0
s 1.496482478 _0_ AGT  --- 45 tcp 1540 [0 0 0 0] ------- [0:0 4:0 32 0] [29 0] 0 0
r 1.496482478 _0_ RTR  --- 45 tcp 1540 [0 0 0 0] ------- [0:0 4:0 32 0] [29 0] 0 0
s 1.496482478 _0_ AGT  --- 46 tcp 1540 [0 0 0 0] ------- [0:0 4:0 32 0] [30 0] 0 0
r 1.496482478 _0_ RTR  --- 46 tcp 1540 [0 0 0 0] ------- [0:0 4:0 32 0] [30 0] 0 0
s 1.496482478 _0_ RTR  --- 45 tcp 1540 [0 0 0 0] ------- [0:0 4:0 30 3] [29 0] 0 0
s 1.496482478 _0_ RTR  --- 46 tcp 1540 [0 0 0 0] ------- [0:0 4:0 30 3] [30 0] 0 0
r 1.510368589 _3_ RTR  --- 25 tcp 1540 [13a 3 0 800] ------- [0:0 4:0 30 3] [16 0] 1 0
f 1.510368589 _3_ RTR  --- 25 tcp 1540 [13a 3 0 800] ------- [0:0 4:0 29 4] [16 0] 1 0
r 1.512344636 _3_ RTR  --- 44 ack 40 [13a 3 4 800] ------- [4:0 0:0 30 3] [15 0] 1 0
f 1.512344636 _3_ RTR  --- 44 ack 40 [13a 3 4 800] ------- [4:0 0:0 29 0] [15 0] 1 0
r 1.526301361 _3_ RTR  --- 29 tcp 1540 [13a 3 0 800] ------- [0:0 4:0 30 3] [17 0] 1 0
f 1.526301361 _3_ RTR  --- 29 tcp 1540 [13a 3 0 800] ------- [0:0 4:0 29 4] [17 0] 1 0
r 1.540288175 _3_ RTR  --- 30 tcp 1540 [13a 3 0 800] ------- [0:0 4:0 30 3] [18 0] 1 0
f 1.540288175 _3_ RTR  --- 30 tcp 1540 [13a 3 0 800] ------- [0:0 4:0 29 4] [18 0] 1 0
r 1.554233778 _4_ AGT  --- 25 tcp 1540 [13a 4 3 800] ------- [0:0 4:0 29 4] [16 0] 2 0
s 1.554233778 _4_ AGT  --- 47 ack 40 [0 0 0 0] ------- [4:0 0:0 32 0] [16 0] 0 0
r 1.554233778 _4_ RTR  --- 47 ack 40 [0 0 0 0] ------- [4:0 0:0 32 0] [16 0] 0 0
s 1.554233778 _4_ RTR  --- 47 ack 40 [0 0 0 0] ------- [4:0 0:0 30 3] [16 0] 0 0
r 1.556180422 _0_ AGT  --- 44 ack 40 [13a 0 3 800] ------- [4:0 0:0 29 0] [15 0] 2 0
s 1.556180422 _0_ AGT  --- 48 tcp 1540 [0 0 0 0] ------- [0:0 4:0 32 0] [31 0] 0 0
r 1.556180422 _0_ RTR  --- 48 tcp 1540 [0 0 0 0] ------- [0:0 4:0 32 0] [31 0] 0 0
s 1.556180422 _0_ AGT  --- 49 tcp 1540 [0 0 0 0] ------- [0:0 4:0 32 0] [32 0] 0 0
r 1.556180422 _0_ RTR  --- 49 tcp 1540 [0 0 0 0] ------- [0:0 4:0 32 0] [32 0] 0 0
s 1.556180422 _0_ RTR  --- 48 tcp 1540 [0 0 0 0] ------- [0:0 4:0 30 3] [31 0] 0 0
s 1.556180422 _0_ RTR  --- 49 tcp 1540 [0 0 0 0] ------- [0:0 4:0 30 3] [32 0] 0 0
r 1.570166728 _4_ AGT  --- 29 tcp 1540 [13a 4 3 800] ------- [0:0 4:0 29 4] [17 0] 2 0
s 1.570166728 _4_ AGT  --- 50 ack 40 [0 0 0 0] ------- [4:0 0:0 32 0] [17 0] 0 0
r 1.570166728 _4_ RTR  --- 50 ack 40 [0 0 0 0] ------- [4:0 0:0 32 0] [17 0] 0 0
s 1.570166728 _4_ RTR  --- 50 ack 40 [0 0 0 0] ------- [4:0 0:0 30 3] [17 0] 0 0
r 1.584212865 _4_ AGT  --- 30 tcp 1540 [13a 4 3 800] ------- [0:0 4:0 29 4] [18 0] 2 0
s 1.584212865 _4_ AGT  --- 51 ack 40 [0 0 0 0] ------- [4:0 0:0 32 0] [18 0] 0 0
r 1.584212865 _4_ RTR  --- 51 ack 40 [0 0 0 0] ------- [4:0 0:0 32 0] [18 0] 0 0
s 1.584212865 _4_ RTR  --- 51 ack 40 [0 0 0 0] ------- [4:0 0:0 30 3] [18 0] 0 0
r 1.586098467 _3_ RTR  --- 47 ack 40 [13a 3 4 800] ------- [4:0 0:0 30 3] [16 0] 1 0
f 1.586098467 _3_ RTR  --- 47 ack 40 [13a 3 4 800] ------- [4:0 0:0 29 0] [16 0] 1 0
r 1.588064578 _0_ AGT  --- 47 ack 40 [13a 0 3 800] ------- [4:0 0:0 29 0] [16 0] 2 0
s 1.588064578 _0_ AGT  --- 52 tcp 1540 [0 0 0 0] ------- [0:0 4:0 32 0] [33 0] 0 0
r 1.588064578 _0_ RTR  --- 52 tcp 1540 [0 0 0 0] ------- [0:0 4:0 32 0] [33 0] 0 0
s 1.588064578 _0_ AGT  --- 53 tcp 1540 [0 0 0 0] ------- [0:0 4:0 32 0] [34 0] 0 0
r 1.588064578 _0_ RTR  --- 53 tcp 1540 [0 0 0 0] ------- [0:0 4:0 32 0] [34 0] 0 0
s 1.588064578 _0_ RTR  --- 52 tcp 1540 [0 0 0 0] ------- [0:0 4:0 30 3] [33 0] 0 0
s 1.588064578 _0_ RTR  --- 53 tcp 1540 [0 0 0 0] ------- [0:0 4:0 30 3] [34 0] 0 0
r 1.601990688 _3_ RTR  --- 31 tcp 1540 [13a 3 0 800] ------- [0:0 4:0 30 3] [19 0] 1 0
f 1.601990688 _3_ RTR  --- 31 tcp 1540 [13a 3 0 800] ------- [0:0 4:0 29 4] [19 0] 1 0
r 1.616056290 _4_ AGT  --- 31 tcp 1540 [13a 4 3 800] ------- [0:0 4:0 29 4] [19 0] 2 0
s 1.616056290 _4_ AGT  --- 54 ack 40 [0 0 0 0] ------- [4:0 0:0 32 0] [19 0] 0 0
r 1.616056290 _4_ RTR  --- 54 ack 40 [0 0 0 0] ------- [4:0 0:0 32 0] [19 0] 0 0
s 1.616056290 _4_ RTR  --- 54 ack 40 [0 0 0 0] ------- [4:0 0:0 30 3] [19 0] 0 0
r 1.617941893 _3_ RTR  --- 50 ack 40 [13a 3 4 800] ------- [4:0 0:0 30 3] [17 0] 1 0
f 1.617941893 _3_ RTR  --- 50 ack 40 [13a 3 4 800] ------- [4:0 0:0 29 0] [17 0] 1 0
r 1.632018617 _3_ RTR  --- 32 tcp 1540 [13a 3 0 800] ------- [0:0 4:0 30 3] [20 0] 1 0
f 1.632018617 _3_ RTR  --- 32 tcp 1540 [13a 3 0 800] ------- [0:0 4:0 29 4] [20 0] 1 0
r 1.633974665 _3_ RTR  --- 51 ack 40 [13a 3 4 800] ------- [4:0 0:0 30 3] [18 0] 1 0
f 1.633974665 _3_ RTR  --- 51 ack 40 [13a 3 4 800] ------- [4:0 0:0 29 0] [18 0] 1 0
r 1.635820801 _3_ RTR  --- 54 ack 40 [13a 3 4 800] ------- [4:0 0:0 30 3] [19 0] 1 0
f 1.635820801 _3_ RTR  --- 54 ack 40 [13a 3 4 800] ------- [4:0 0:0 29 0] [19 0] 1 0
r 1.637726911 _0_ AGT  --- 50 ack 40 [13a 0 3 800] ------- [4:0 0:0 29 0] [17 0] 2 0
s 1.637726911 _0_ AGT  --- 55 tcp 1540 [0 0 0 0] ------- [0:0 4:0 32 0] [35 0] 0 0
r 1.637726911 _0_ RTR  --- 55 tcp 1540 [0 0 0 0] ------- [0:0 4:0 32 0] [35 0] 0 0
s 1.637726911 _0_ AGT  --- 56 tcp 1540 [0 0 0 0] ------- [0:0 4:0 32 0] [36 0] 0 0
r 1.637726911 _0_ RTR  --- 56 tcp 1540 [0 0 0 0] ------- [0:0 4:0 32 0] [36 0] 0 0
s 1.637726911 _0_ RTR  --- 55 tcp 1540 [0 0 0 0] ------- [0:0 4:0 30 3] [35 0] 0 0
s 1.637726911 _0_ RTR  --- 56 tcp 1540 [0 0 0 0] ------- [0:0 4:0 30 3] [36 0] 0 0
r 1.651573021 _3_ RTR  --- 33 tcp 1540 [13a 3 0 800] ------- [0:0 4:0 30 3] [21 0] 1 0
f 1.651573021 _3_ RTR  --- 33 tcp 1540 [13a 3 0 800] ------- [0:0 4:0 29 4] [21 0] 1 0
r 1.665399834 _3_ RTR  --- 34 tcp 1540 [13a 3 0 800] ------- [0:0 4:0 30 3] [22 0] 1 0
f 1.665399834 _3_ RTR  --- 34 tcp 1540 [13a 3 0 800] ------- [0:0 4:0 29 4] [22 0] 1 0
r 1.679286646 _3_ RTR  --- 36 tcp 1540 [13a 3 0 800] ------- [0:0 4:0 30 3] [23 0] 1 0
f 1.679286646 _3_ RTR  --- 36 tcp 1540 [13a 3 0 800] ------- [0:0 4:0 29 4] [23 0] 1 0
r 1.693152249 _4_ AGT  --- 32 tcp 1540 [13a 4 3 800] ------- [0:0 4:0 29 4] [20 0] 2 0
s 1.693152249 _4_ AGT  --- 57 ack 40 [0 0 0 0] ------- [4:0 0:0 32 0] [20 0] 0 0
r 1.693152249 _4_ RTR  --- 57 ack 40 [0 0 0 0] ------- [4:0 0:0 32 0] [20 0] 0 0
s 1.693152249 _4_ RTR  --- 57 ack 40 [0 0 0 0] ------- [4:0 0:0 30 3] [20 0] 0 0
r 1.695177851 _3_ RTR  --- 57 ack 40 [13a 3 4 800] ------- [4:0 0:0 30 3] [20 0] 1 0
f 1.695177851 _3_ RTR  --- 57 ack 40 [13a 3 4 800] ------- [4:0 0:0 29 0] [20 0] 1 0
r 1.697423960 _0_ AGT  --- 51 ack 40 [13a 0 3 800] ------- [4:0 0:0 29 0] [18 0] 2 0
s 1.697423960 _0_ AGT  --- 58 tcp 1540 [0 0 0 0] ------- [0:0 4:0 32 0] [37 0] 0 0
r 1.697423960 _0_ RTR  --- 58 tcp 1540 [0 0 0 0] ------- [0:0 4:0 32 0] [37 0] 0 0
s 1.697423960 _0_ AGT  --- 59 tcp 1540 [0 0 0 0] ------- [0:0 4:0 32 0] [38 0] 0 0
r 1.697423960 _0_ RTR  --- 59 tcp 1540 [0 0 0 0] ------- [0:0 4:0 32 0] [38 0] 0 0
s 1.697423960 _0_ RTR  --- 58 tcp 1540 [0 0 0 0] ------- [0:0 4:0 30 3] [37 0] 0 0
s 1.697423960 _0_ RTR  --- 59 tcp 1540 [0 0 0 0] ------- [0:0 4:0 30 3] [38 0] 0 0
r 1.699270773 _0_ AGT  --- 54 ack 40 [13a 0 3 800] ------- [4:0 0:0 29 0] [19 0] 2 0
s 1.699270773 _0_ AGT  --- 60 tcp 1540 [0 0 0 0] ------- [0:0 4:0 32 0] [39 0] 0 0
r 1.699270773 _0_ RTR  --- 60 tcp 1540 [0 0 0 0] ------- [0:0 4:0 32 0] [39 0] 0 0
s 1.699270773 _0_ RTR  --- 60 tcp 1540 [0 0 0 0] ------- [0:0 4:0 30 3] [39 0] 0 0
r 1.713117078 _4_ AGT  --- 33 tcp 1540 [13a 4 3 800] ------- [0:0 4:0 29 4] [21 0] 2 0
s 1.713117078 _4_ AGT  --- 61 ack 40 [0 0 0 0] ------- [4:0 0:0 32 0] [21 0] 0 0
r 1.713117078 _4_ RTR  --- 61 ack 40 [0 0 0 0] ------- [4:0 0:0 32 0] [21 0] 0 0
s 1.713117078 _4_ RTR  --- 61 ack 40 [0 0 0 0] ------- [4:0 0:0 30 3] [21 0] 0 0
r 1.714962681 _3_ RTR  --- 61 ack 40 [13a 3 4 800] ------- [4:0 0:0 30 3] [21 0] 1 0
f 1.714962681 _3_ RTR  --- 61 ack 40 [13a 3 4 800] ------- [4:0 0:0 29 0] [21 0] 1 0
r 1.728848283 _4_ AGT  --- 34 tcp 1540 [13a 4 3 800] ------- [0:0 4:0 29 4] [22 0] 2 0
s 1.728848283 _4_ AGT  --- 62 ack 40 [0 0 0 0] ------- [4:0 0:0 32 0] [22 0] 0 0
r 1.728848283 _4_ RTR  --- 62 ack 40 [0 0 0 0] ------- [4:0 0:0 32 0] [22 0] 0 0
s 1.728848283 _4_ RTR  --- 62 ack 40 [0 0 0 0] ------- [4:0 0:0 30 3] [22 0] 0 0
r 1.742694419 _4_ AGT  --- 36 tcp 1540 [13a 4 3 800] ------- [0:0 4:0 29 4] [23 0] 2 0
s 1.742694419 _4_ AGT  --- 63 ack 40 [0 0 0 0] ------- [4:0 0:0 32 0] [23 0] 0 0
r 1.742694419 _4_ RTR  --- 63 ack 40 [0 0 0 0] ------- [4:0 0:0 32 0] [23 0] 0 0
s 1.742694419 _4_ RTR  --- 63 ack 40 [0 0 0 0] ------- [4:0 0:0 30 3] [23 0] 0 0
r 1.744541062 _0_ AGT  --- 57 ack 40 [13a 0 3 800] ------- [4:0 0:0 29 0] [20 0] 2 0
s 1.744541062 _0_ AGT  --- 64 tcp 1540 [0 0 0 0] ------- [0:0 4:0 32 0] [40 0] 0 0
r 1.744541062 _0_ RTR  --- 64 tcp 1540 [0 0 0 0] ------- [0:0 4:0 32 0] [40 0] 0 0
s 1.744541062 _0_ RTR  --- 64 tcp 1540 [0 0 0 0] ------- [0:0 4:0 30 3] [40 0] 0 0
r 1.758467171 _3_ RTR  --- 37 tcp 1540 [13a 3 0 800] ------- [0:0 4:0 30 3] [24 0] 1 0
f 1.758467171 _3_ RTR  --- 37 tcp 1540 [13a 3 0 800] ------- [0:0 4:0 29 4] [24 0] 1 0
r 1.760523219 _3_ RTR  --- 62 ack 40 [13a 3 4 800] ------- [4:0 0:0 30 3] [22 0] 1 0
f 1.760523219 _3_ RTR  --- 62 ack 40 [13a 3 4 800] ------- [4:0 0:0 29 0] [22 0] 1 0
r 1.762429328 _0_ AGT  --- 61 ack 40 [13a 0 3 800] ------- [4:0 0:0 29 0] [21 0] 2 0
s 1.762429328 _0_ AGT  --- 65 tcp 1540 [0 0 0 0] ------- [0:0 4:0 32 0] [41 0] 0 0
r 1.762429328 _0_ RTR  --- 65 tcp 1540 [0 0 0 0] ------- [0:0 4:0 32 0] [41 0] 0 0
s 1.762429328 _0_ RTR  --- 65 tcp 1540 [0 0 0 0] ------- [0:0 4:0 30 3] [41 0] 0 0
r 1.776455437 _3_ RTR  --- 39 tcp 1540 [13a 3 0 800] ------- [0:0 4:0 30 3] [25 0] 1 0
f 1.776455437 _3_ RTR  --- 39 tcp 1540 [13a 3 0 800] ------- [0:0 4:0 29 4] [25 0] 1 0
r 1.790581039 _4_ AGT  --- 37 tcp 1540 [13a 4 3 800] ------- [0:0 4:0 29 4] [24 0] 2 0
s 1.790581039 _4_ AGT  --- 66 ack 40 [0 0 0 0] ------- [4:0 0:0 32 0] [24 0] 0 0