s 0.010000000 _0_ AGT  --- 0 tcp 40 [0 0 0 0] ------- [0:0 4:0 32 0] [0 0] 0 0
r 0.010000000 _0_ RTR  --- 0 tcp 40 [0 0 0 0] ------- [0:0 4:0 32 0] [0 0] 0 0
s 0.010000000 _0_ RTR  --- 0 AODV 48 [0 0 0 0] ------- [0:255 -1:255 30 0] [0x2 1 1 [4 0] [0 4]] (REQUEST)
r 0.010988440 _4_ RTR  --- 0 AODV 48 [0 ffffffff 0 800] ------- [0:255 -1:255 30 0] [0x2 1 1 [4 0] [0 4]] (REQUEST)
s 0.010988440 _4_ RTR  --- 0 AODV 44 [0 0 0 0] ------- [4:255 0:255 30 0] [0x4 1 [4 4] 10.000000] (REPLY)
r 0.010988509 _5_ RTR  --- 0 AODV 48 [0 ffffffff 0 800] ------- [0:255 -1:255 30 0] [0x2 1 1 [4 0] [0 4]] (REQUEST)
s 0.011869735 _5_ RTR  --- 0 AODV 48 [0 ffffffff 0 800] ------- [5:255 -1:255 29 0] [0x2 2 1 [4 0] [0 4]] (REQUEST)
r 0.012975119 _4_ RTR  --- 0 AODV 48 [0 ffffffff 5 800] ------- [5:255 -1:255 29 0] [0x2 2 1 [4 0] [0 4]] (REQUEST)
r 0.012975288 _0_ RTR  --- 0 AODV 48 [0 ffffffff 5 800] ------- [5:255 -1:255 29 0] [0x2 2 1 [4 0] [0 4]] (REQUEST)
r 0.012975297 _9_ RTR  --- 0 AODV 48 [0 ffffffff 5 800] ------- [5:255 -1:255 29 0] [0x2 2 1 [4 0] [0 4]] (REQUEST)
s 0.015321315 _9_ RTR  --- 0 AODV 48 [0 ffffffff 5 800] ------- [9:255 -1:255 28 0] [0x2 3 1 [4 0] [0 4]] (REQUEST)
r 0.016827927 _0_ RTR  --- 0 AODV 44 [13a 0 4 800] ------- [4:255 0:255 30 0] [0x4 1 [4 4] 10.000000] (REPLY)
s 0.016827927 _0_ RTR  --- 0 tcp 40 [0 0 0 0] ------- [0:0 4:0 30 4] [0 0] 0 0
r 0.018693247 _4_ AGT  --- 0 tcp 40 [13a 4 0 800] ------- [0:0 4:0 30 4] [0 0] 1 0
s 0.018693247 _4_ AGT  --- 1 ack 40 [0 0 0 0] ------- [4:0 0:0 32 0] [0 0] 0 0
r 0.018693247 _4_ RTR  --- 1 ack 40 [0 0 0 0] ------- [4:0 0:0 32 0] [0 0] 0 0
s 0.018693247 _4_ RTR  --- 1 ack 40 [0 0 0 0] ------- [4:0 0:0 30 0] [0 0] 0 0
r 0.020196349 _5_ RTR  --- 0 AODV 48 [0 ffffffff 9 800] ------- [9:255 -1:255 28 0] [0x2 3 1 [4 0] [0 4]] (REQUEST)
r 0.020196605 _4_ RTR  --- 0 AODV 48 [0 ffffffff 9 800] ------- [9:255 -1:255 28 0] [0x2 3 1 [4 0] [0 4]] (REQUEST)
r 0.021947925 _0_ AGT  --- 1 ack 40 [13a 0 4 800] ------- [4:0 0:0 30 0] [0 0] 1 0
s 0.021947925 _0_ AGT  --- 2 tcp 1540 [0 0 0 0] ------- [0:0 4:0 32 0] [1 0] 0 0
r 0.021947925 _0_ RTR  --- 2 tcp 1540 [0 0 0 0] ------- [0:0 4:0 32 0] [1 0] 0 0
s 0.021947925 _0_ AGT  --- 3 tcp 1540 [0 0 0 0] ------- [0:0 4:0 32 0] [2 0] 0 0
r 0.021947925 _0_ RTR  --- 3 tcp 1540 [0 0 0 0] ------- [0:0 4:0 32 0] [2 0] 0 0
s 0.021947925 _0_ RTR  --- 2 tcp 1540 [0 0 0 0] ------- [0:0 4:0 30 4] [1 0] 0 0
s 0.021947925 _0_ RTR  --- 3 tcp 1540 [0 0 0 0] ------- [0:0 4:0 30 4] [2 0] 0 0
r 0.036013244 _4_ AGT  --- 2 tcp 1540 [13a 4 0 800] ------- [0:0 4:0 30 4] [1 0] 1 0
s 0.036013244 _4_ AGT  --- 4 ack 40 [0 0 0 0] ------- [4:0 0:0 32 0] [1 0] 0 0
r 0.036013244 _4_ RTR  --- 4 ack 40 [0 0 0 0] ------- [4:0 0:0 32 0] [1 0] 0 0
s 0.036013244 _4_ RTR  --- 4 ack 40 [0 0 0 0] ------- [4:0 0:0 30 0] [1 0] 0 0
r 0.050179004 _4_ AGT  --- 3 tcp 1540 [13a 4 0 800] ------- [0:0 4:0 30 4] [2 0] 1 0
s 0.050179004 _4_ AGT  --- 5 ack 40 [0 0 0 0] ------- [4:0 0:0 32 0] [2 0] 0 0
r 0.050179004 _4_ RTR  --- 5 ack 40 [0 0 0 0] ------- [4:0 0:0 32 0] [2 0] 0 0
s 0.050179004 _4_ RTR  --- 5 ack 40 [0 0 0 0] ------- [4:0 0:0 30 0] [2 0] 0 0
r 0.052144323 _0_ AGT  --- 4 ack 40 [13a 0 4 800] ------- [4:0 0:0 30 0] [1 0] 1 0
s 0.052144323 _0_ AGT  --- 6 tcp 1540 [0 0 0 0] ------- [0:0 4:0 32 0] [3 0] 0 0
r 0.052144323 _0_ RTR  --- 6 tcp 1540 [0 0 0 0] ------- [0:0 4:0 32 0] [3 0] 0 0
s 0.052144323 _0_ AGT  --- 7 tcp 1540 [0 0 0 0] ------- [0:0 4:0 32 0] [4 0] 0 0
r 0.052144323 _0_ RTR  --- 7 tcp 1540 [0 0 0 0] ------- [0:0 4:0 32 0] [4 0] 0 0
s 0.052144323 _0_ RTR  --- 6 tcp 1540 [0 0 0 0] ------- [0:0 4:0 30 4] [3 0] 0 0
s 0.052144323 _0_ RTR  --- 7 tcp 1540 [0 0 0 0] ------- [0:0 4:0 30 4] [4 0] 0 0
r 0.066149643 _4_ AGT  --- 6 tcp 1540 [13a 4 0 800] ------- [0:0 4:0 30 4] [3 0] 1 0
s 0.066149643 _4_ AGT  --- 8 ack 40 [0 0 0 0] ------- [4:0 0:0 32 0] [3 0] 0 0
r 0.066149643 _4_ RTR  --- 8 ack 40 [0 0 0 0] ------- [4:0 0:0 32 0] [3 0] 0 0
s 0.066149643 _4_ RTR  --- 8 ack 40 [0 0 0 0] ------- [4:0 0:0 30 0] [3 0] 0 0
r 0.068014962 _0_ AGT  --- 5 ack 40 [13a 0 4 800] ------- [4:0 0:0 30 0] [2 0] 1 0
s 0.068014962 _0_ AGT  --- 9 tcp 1540 [0 0 0 0] ------- [0:0 4:0 32 0] [5 0] 0 0
r 0.068014962 _0_ RTR  --- 9 tcp 1540 [0 0 0 0] ------- [0:0 4:0 32 0] [5 0] 0 0
s 0.068014962 _0_ AGT  --- 10 tcp 1540 [0 0 0 0] ------- [0:0 4:0 32 0] [6 0] 0 0
r 0.068014962 _0_ RTR  --- 10 tcp 1540 [0 0 0 0] ------- [0:0 4:0 32 0] [6 0] 0 0
s 0.068014962 _0_ RTR  --- 9 tcp 1540 [0 0 0 0] ------- [0:0 4:0 30 4] [5 0] 0 0
s 0.068014962 _0_ RTR  --- 10 tcp 1540 [0 0 0 0] ------- [0:0 4:0 30 4] [6 0] 0 0
r 0.069860721 _0_ AGT  --- 8 ack 40 [13a 0 4 800] ------- [4:0 0:0 30 0] [3 0] 1 0
s 0.069860721 _0_ AGT  --- 11 tcp 1540 [0 0 0 0] ------- [0:0 4:0 32 0] [7 0] 0 0
r 0.069860721 _0_ RTR  --- 11 tcp 1540 [0 0 0 0] ------- [0:0 4:0 32 0] [7 0] 0 0
s 0.069860721 _0_ AGT  --- 12 tcp 1540 [0 0 0 0] ------- [0:0 4:0 32 0] [8 0] 0 0
r 0.069860721 _0_ RTR  --- 12 tcp 1540 [0 0 0 0] ------- [0:0 4:0 32 0] [8 0] 0 0
s 0.069860721 _0_ RTR  --- 11 tcp 1540 [0 0 0 0] ------- [0:0 4:0 30 4] [7 0] 0 0
s 0.069860721 _0_ RTR  --- 12 tcp 1540 [0 0 0 0] ------- [0:0 4:0 30 4] [8 0] 0 0
r 0.083846041 _4_ AGT  --- 7 tcp 1540 [13a 4 0 800] ------- [0:0 4:0 30 4] [4 0] 1 0
s 0.083846041 _4_ AGT  --- 13 ack 40 [0 0 0 0] ------- [4:0 0:0 32 0] [4 0] 0 0
r 0.083846041 _4_ RTR  --- 13 ack 40 [0 0 0 0] ------- [4:0 0:0 32 0] [4 0] 0 0
s 0.083846041 _4_ RTR  --- 13 ack 40 [0 0 0 0] ------- [4:0 0:0 30 0] [4 0] 0 0
r 0.085751360 _0_ AGT  --- 13 ack 40 [13a 0 4 800] ------- [4:0 0:0 30 0] [4 0] 1 0
s 0.085751360 _0_ AGT  --- 14 tcp 1540 [0 0 0 0] ------- [0:0 4:0 32 0] [9 0] 0 0
r 0.085751360 _0_ RTR  --- 14 tcp 1540 [0 0 0 0] ------- [0:0 4:0 32 0] [9 0] 0 0
s 0.085751360 _0_ AGT  --- 15 tcp 1540 [0 0 0 0] ------- [0:0 4:0 32 0] [10 0] 0 0
r 0.085751360 _0_ RTR  --- 15 tcp 1540 [0 0 0 0] ------- [0:0 4:0 32 0] [10 0] 0 0
s 0.085751360 _0_ RTR  --- 14 tcp 1540 [0 0 0 0] ------- [0:0 4:0 30 4] [9 0] 0 0
s 0.085751360 _0_ RTR  --- 15 tcp 1540 [0 0 0 0] ------- [0:0 4:0 30 4] [10 0] 0 0
r 0.099936680 _4_ AGT  --- 9 tcp 1540 [13a 4 0 800] ------- [0:0 4:0 30 4] [5 0] 1 0
s 0.099936680 _4_ AGT  --- 16 ack 40 [0 0 0 0] ------- [4:0 0:0 32 0] [5 0] 0 0
r 0.099936680 _4_ RTR  --- 16 ack 40 [0 0 0 0] ------- [4:0 0:0 32 0] [5 0] 0 0
s 0.099936680 _4_ RTR  --- 16 ack 40 [0 0 0 0] ------- [4:0 0:0 30 0] [5 0] 0 0
r 0.114162439 _4_ AGT  --- 10 tcp 1540 [13a 4 0 800] ------- [0:0 4:0 30 4] [6 0] 1 0
s 0.114162439 _4_ AGT  --- 17 ack 40 [0 0 0 0] ------- [4:0 0:0 32 0] [6 0] 0 0
r 0.114162439 _4_ RTR  --- 17 ack 40 [0 0 0 0] ------- [4:0 0:0 32 0] [6 0] 0 0
s 0.114162439 _4_ RTR  --- 17 ack 40 [0 0 0 0] ------- [4:0 0:0 30 0] [6 0] 0 0
r 0.116167759 _0_ AGT  --- 16 ack 40 [13a 0 4 800] ------- [4:0 0:0 30 0] [5 0] 1 0
s 0.116167759 _0_ AGT  --- 18 tcp 1540 [0 0 0 0] ------- [0:0 4:0 32 0] [11 0] 0 0
r 0.116167759 _0_ RTR  --- 18 tcp 1540 [0 0 0 0] ------- [0:0 4:0 32 0] [11 0] 0 0
s 0.116167759 _0_ AGT  --- 19 tcp 1540 [0 0 0 0] ------- [0:0 4:0 32 0] [12 0] 0 0
r 0.116167759 _0_ RTR  --- 19 tcp 1540 [0 0 0 0] ------- [0:0 4:0 32 0] [12 0] 0 0
s 0.116167759 _0_ RTR  --- 18 tcp 1540 [0 0 0 0] ------- [0:0 4:0 30 4] [11 0] 0 0
s 0.116167759 _0_ RTR  --- 19 tcp 1540 [0 0 0 0] ------- [0:0 4:0 30 4] [12 0] 0 0
r 0.118353518 _0_ AGT  --- 17 ack 40 [13a 0 4 800] ------- [4:0 0:0 30 0] [6 0] 1 0
s 0.118353518 _0_ AGT  --- 20 tcp 1540 [0 0 0 0] ------- [0:0 4:0 32 0] [13 0] 0 0
r 0.118353518 _0_ RTR  --- 20 tcp 1540 [0 0 0 0] ------- [0:0 4:0 32 0] [13 0] 0 0
s 0.118353518 _0_ AGT  --- 21 tcp 1540 [0 0 0 0] ------- [0:0 4:0 32 0] [14 0] 0 0
r 0.118353518 _0_ RTR  --- 21 tcp 1540 [0 0 0 0] ------- [0:0 4:0 32 0] [14 0] 0 0
s 0.118353518 _0_ RTR  --- 20 tcp 1540 [0 0 0 0] ------- [0:0 4:0 30 4] [13 0] 0 0
s 0.118353518 _0_ RTR  --- 21 tcp 1540 [0 0 0 0] ------- [0:0 4:0 30 4] [14 0] 0 0
r 0.132198837 _4_ AGT  --- 11 tcp 1540 [13a 4 0 800] ------- [0:0 4:0 30 4] [7 0] 1 0
s 0.132198837 _4_ AGT  --- 22 ack 40 [0 0 0 0] ------- [4:0 0:0 32 0] [7 0] 0 0
r 0.132198837 _4_ RTR  --- 22 ack 40 [0 0 0 0] ------- [4:0 0:0 32 0] [7 0] 0 0
s 0.132198837 _4_ RTR  --- 22 ack 40 [0 0 0 0] ------- [4:0 0:0 30 0] [7 0] 0 0
r 0.134044157 _0_ AGT  --- 22 ack 40 [13a 0 4 800] ------- [4:0 0:0 30 0] [7 0] 1 0
s 0.134044157 _0_ AGT  --- 23 tcp 1540 [0 0 0 0] ------- [0:0 4:0 32 0] [15 0] 0 0
r 0.134044157 _0_ RTR  --- 23 tcp 1540 [0 0 0 0] ------- [0:0 4:0 32 0] [15 0] 0 0
s 0.134044157 _0_ AGT  --- 24 tcp 1540 [0 0 0 0] ------- [0:0 4:0 32 0] [16 0] 0 0
r 0.134044157 _0_ RTR  --- 24 tcp 1540 [0 0 0 0] ------- [0:0 4:0 32 0] [16 0] 0 0
s 0.134044157 _0_ RTR  --- 23 tcp 1540 [0 0 0 0] ------- [0:0 4:0 30 4] [15 0] 0 0
s 0.134044157 _0_ RTR  --- 24 tcp 1540 [0 0 0 0] ------- [0:0 4:0 30 4] [16 0] 0 0
r 0.148169476 _4_ AGT  --- 12 tcp 1540 [13a 4 0 800] ------- [0:0 4:0 30 4] [8 0] 1 0
s 0.148169476 _4_ AGT  --- 25 ack 40 [0 0 0 0] ------- [4:0 0:0 32 0] [8 0] 0 0
r 0.148169476 _4_ RTR  --- 25 ack 40 [0 0 0 0] ------- [4:0 0:0 32 0] [8 0] 0 0
s 0.148169476 _4_ RTR  --- 25 ack 40 [0 0 0 0] ------- [4:0 0:0 30 0] [8 0] 0 0
r 0.150074796 _0_ AGT  --- 25 ack 40 [13a 0 4 800] ------- [4:0 0:0 30 0] [8 0] 1 0
s 0.150074796 _0_ AGT  --- 26 tcp 1540 [0 0 0 0] ------- [0:0 4:0 32 0] [17 0] 0 0
r 0.150074796 _0_ RTR  --- 26 tcp 1540 [0 0 0 0] ------- [0:0 4:0 32 0] [17 0] 0 0
s 0.150074796 _0_ AGT  --- 27 tcp 1540 [0 0 0 0] ------- [0:0 4:0 32 0] [18 0] 0 0
r 0.150074796 _0_ RTR  --- 27 tcp 1540 [0 0 0 0] ------- [0:0 4:0 32 0] [18 0] 0 0
s 0.150074796 _0_ RTR  --- 26 tcp 1540 [0 0 0 0] ------- [0:0 4:0 30 4] [17 0] 0 0
s 0.150074796 _0_ RTR  --- 27 tcp 1540 [0 0 0 0] ------- [0:0 4:0 30 4] [18 0] 0 0
r 0.163980115 _4_ AGT  --- 14 tcp 1540 [13a 4 0 800] ------- [0:0 4:0 30 4] [9 0] 1 0
s 0.163980115 _4_ AGT  --- 28 ack 40 [0 0 0 0] ------- [4:0 0:0 32 0] [9 0] 0 0
r 0.163980115 _4_ RTR  --- 28 ack 40 [0 0 0 0] ------- [4:0 0:0 32 0] [9 0] 0 0
s 0.163980115 _4_ RTR  --- 28 ack 40 [0 0 0 0] ------- [4:0 0:0 30 0] [9 0] 0 0
r 0.178005875 _4_ AGT  --- 15 tcp 1540 [13a 4 0 800] ------- [0:0 4:0 30 4] [10 0] 1 0
s 0.178005875 _4_ AGT  --- 29 ack 40 [0 0 0 0] ------- [4:0 0:0 32 0] [10 0] 0 0
r 0.178005875 _4_ RTR  --- 29 ack 40 [0 0 0 0] ------- [4:0 0:0 32 0] [10 0] 0 0
s 0.178005875 _4_ RTR  --- 29 ack 40 [0 0 0 0] ------- [4:0 0:0 30 0] [10 0] 0 0
r 0.179911194 _0_ AGT  --- 28 ack 40 [13a 0 4 800] ------- [4:0 0:0 30 0] [9 0] 1 0
s 0.179911194 _0_ AGT  --- 30 tcp 1540 [0 0 0 0] ------- [0:0 4:0 32 0] [19 0] 0 0
r 0.179911194 _0_ RTR  --- 30 tcp 1540 [0 0 0 0] ------- [0:0 4:0 32 0] [19 0] 0 0
s 0.179911194 _0_ AGT  --- 31 tcp 1540 [0 0 0 0] ------- [0:0 4:0 32 0] [20 0] 0 0
r 0.179911194 _0_ RTR  --- 31 tcp 1540 [0 0 0 0] ------- [0:0 4:0 32 0] [20 0] 0 0
s 0.179911194 _0_ RTR  --- 30 tcp 1540 [0 0 0 0] ------- [0:0 4:0 30 4] [19 0] 0 0
s 0.179911194 _0_ RTR  --- 31 tcp 1540 [0 0 0 0] ------- [0:0 4:0 30 4] [20 0] 0 0
r 0.193776513 _4_ AGT  --- 18 tcp 1540 [13a 4 0 800] ------- [0:0 4:0 30 4] [11 0] 1 0
s 0.193776513 _4_ AGT  --- 32 ack 40 [0 0 0 0] ------- [4:0 0:0 32 0] [11 0] 0 0
r 0.193776513 _4_ RTR  --- 32 ack 40 [0 0 0 0] ------- [4:0 0:0 32 0] [11 0] 0 0
s 0.193776513 _4_ RTR  --- 32 ack 40 [0 0 0 0] ------- [4:0 0:0 30 0] [11 0] 0 0
r 0.207822273 _4_ AGT  --- 19 tcp 1540 [13a 4 0 800] ------- [0:0 4:0 30 4] [12 0] 1 0
s 0.207822273 _4_ AGT  --- 33 ack 40 [0 0 0 0] ------- [4:0 0:0 32 0] [12 0] 0 0
r 0.207822273 _4_ RTR  --- 33 ack 40 [0 0 0 0] ------- [4:0 0:0 32 0] [12 0] 0 0
s 0.207822273 _4_ RTR  --- 33 ack 40 [0 0 0 0] ------- [4:0 0:0 30 0] [12 0] 0 0
r 0.221848032 _4_ AGT  --- 20 tcp 1540 [13a 4 0 800] ------- [0:0 4:0 30 4] [13 0] 1 0
s 0.221848032 _4_ AGT  --- 34 ack 40 [0 0 0 0] ------- [4:0 0:0 32 0] [13 0] 0 0
r 0.221848032 _4_ RTR  --- 34 ack 40 [0 0 0 0] ------- [4:0 0:0 32 0] [13 0] 0 0
s 0.221848032 _4_ RTR  --- 34 ack 40 [0 0 0 0] ------- [4:0 0:0 30 0] [13 0] 0 0
r 0.223733352 _0_ AGT  --- 29 ack 40 [13a 0 4 800] ------- [4:0 0:0 30 0] [10 0] 1 0
s 0.223733352 _0_ AGT  --- 35 tcp 1540 [0 0 0 0] ------- [0:0 4:0 32 0] [21 0] 0 0
r 0.223733352 _0_ RTR  --- 35 tcp 1540 [0 0 0 0] ------- [0:0 4:0 32 0] [21 0] 0 0
s 0.223733352 _0_ AGT  --- 36 tcp 1540 [0 0 0 0] ------- [0:0 4:0 32 0] [22 0] 0 0
r 0.223733352 _0_ RTR  --- 36 tcp 1540 [0 0 0 0] ------- [0:0 4:0 32 0] [22 0] 0 0
s 0.223733352 _0_ RTR  --- 35 tcp 1540 [0 0 0 0] ------- [0:0 4:0 30 4] [21 0] 0 0
s 0.223733352 _0_ RTR  --- 36 tcp 1540 [0 0 0 0] ------- [0:0 4:0 30 4] [22 0] 0 0
r 0.225619111 _0_ AGT  --- 32 ack 40 [13a 0 4 800] ------- [4:0 0:0 30 0] [11 0] 1 0
s 0.225619111 _0_ AGT  --- 37 tcp 1540 [0 0 0 0] ------- [0:0 4:0 32 0] [23 0] 0 0
r 0.225619111 _0_ RTR  --- 37 tcp 1540 [0 0 0 0] ------- [0:0 4:0 32 0] [23 0] 0 0
s 0.225619111 _0_ AGT  --- 38 tcp 1540 [0 0 0 0] ------- [0:0 4:0 32 0] [24 0] 0 0
r 0.225619111 _0_ RTR  --- 38 tcp 1540 [0 0 0 0] ------- [0:0 4:0 32 0] [24 0] 0 0
s 0.225619111 _0_ RTR  --- 37 tcp 1540 [0 0 0 0] ------- [0:0 4:0 30 4] [23 0] 0 0
s 0.225619111 _0_ RTR  --- 38 tcp 1540 [0 0 0 0] ------- [0:0 4:0 30 4] [24 0] 0 0
r 0.227564870 _0_ AGT  --- 33 ack 40 [13a 0 4 800] ------- [4:0 0:0 30 0] [12 0] 1 0
s 0.227564870 _0_ AGT  --- 39 tcp 1540 [0 0 0 0] ------- [0:0 4:0 32 0] [25 0] 0 0
r 0.227564870 _0_ RTR  --- 39 tcp 1540 [0 0 0 0] ------- [0:0 4:0 32 0] [25 0] 0 0
s 0.227564870 _0_ AGT  --- 40 tcp 1540 [0 0 0 0] ------- [0:0 4:0 32 0] [26 0] 0 0
r 0.227564870 _0_ RTR  --- 40 tcp 1540 [0 0 0 0] ------- [0:0 4:0 32 0] [26 0] 0 0
s 0.227564870 _0_ RTR  --- 39 tcp 1540 [0 0 0 0] ------- [0:0 4:0 30 4] [25 0] 0 0
s 0.227564870 _0_ RTR  --- 40 tcp 1540 [0 0 0 0] ------- [0:0 4:0 30 4] [26 0] 0 0
r 0.230536629 _0_ AGT  --- 34 ack 40 [13a 0 4 800] ------- [4:0 0:0 30 0] [13 0] 1 0
s 0.230536629 _0_ AGT  --- 41 tcp 1540 [0 0 0 0] ------- [0:0 4:0 32 0] [27 0] 0 0
r 0.230536629 _0_ RTR  --- 41 tcp 1540 [0 0 0 0] ------- [0:0 4:0 32 0] [27 0] 0 0
s 0.230536629 _0_ AGT  --- 42 tcp 1540 [0 0 0 0] ------- [0:0 4:0 32 0] [28 0] 0 0
r 0.230536629 _0_ RTR  --- 42 tcp 1540 [0 0 0 0] ------- [0:0 4:0 32 0] [28 0] 0 0
s 0.230536629 _0_ RTR  --- 41 tcp 1540 [0 0 0 0] ------- [0:0 4:0 30 4] [27 0] 0 0
s 0.230536629 _0_ RTR  --- 42 tcp 1540 [0 0 0 0] ------- [0:0 4:0 30 4] [28 0] 0 0
r 0.245001949 _4_ AGT  --- 21 tcp 1540 [13a 4 0 800] ------- [0:0 4:0 30 4] [14 0] 1 0
s 0.245001949 _4_ AGT  --- 43 ack 40 [0 0 0 0] ------- [4:0 0:0 32 0] [14 0] 0 0
r 0.245001949 _4_ RTR  --- 43 ack 40 [0 0 0 0] ------- [4:0 0:0 32 0] [14 0] 0 0
s 0.245001949 _4_ RTR  --- 43 ack 40 [0 0 0 0] ------- [4:0 0:0 30 0] [14 0] 0 0
r 0.247107268 _0_ AGT  --- 43 ack 40 [13a 0 4 800] ------- [4:0 0:0 30 0] [14 0] 1 0
s 0.247107268 _0_ AGT  --- 44 tcp 1540 [0 0 0 0] ------- [0:0 4:0 32 0] [29 0] 0 0
r 0.247107268 _0_ RTR  --- 44 tcp 1540 [0 0 0 0] ------- [0:0 4:0 32 0] [29 0] 0 0
s 0.247107268 _0_ AGT  --- 45 tcp 1540 [0 0 0 0] ------- [0:0 4:0 32 0] [30 0] 0 0
r 0.247107268 _0_ RTR  --- 45 tcp 1540 [0 0 0 0] ------- [0:0 4:0 32 0] [30 0] 0 0
s 0.247107268 _0_ RTR  --- 44 tcp 1540 [0 0 0 0] ------- [0:0 4:0 30 4] [29 0] 0 0
s 0.247107268 _0_ RTR  --- 45 tcp 1540 [0 0 0 0] ------- [0:0 4:0 30 4] [30 0] 0 0
r 0.261132588 _4_ AGT  --- 23 tcp 1540 [13a 4 0 800] ------- [0:0 4:0 30 4] [15 0] 1 0
s 0.261132588 _4_ AGT  --- 46 ack 40 [0 0 0 0] ------- [4:0 0:0 32 0] [15 0] 0 0
r 0.261132588 _4_ RTR  --- 46 ack 40 [0 0 0 0] ------- [4:0 0:0 32 0] [15 0] 0 0
s 0.261132588 _4_ RTR  --- 46 ack 40 [0 0 0 0] ------- [4:0 0:0 30 0] [15 0] 0 0
r 0.263177907 _0_ AGT  --- 46 ack 40 [13a 0 4 800] ------- [4:0 0:0 30 0] [15 0] 1 0
s 0.263177907 _0_ AGT  --- 47 tcp 1540 [0 0 0 0] ------- [0:0 4:0 32 0] [31 0] 0 0
r 0.263177907 _0_ RTR  --- 47 tcp 1540 [0 0 0 0] ------- [0:0 4:0 32 0] [31 0] 0 0
s 0.263177907 _0_ AGT  --- 48 tcp 1540 [0 0 0 0] ------- [0:0 4:0 32 0] [32 0] 0 0
r 0.263177907 _0_ RTR  --- 48 tcp 1540 [0 0 0 0] ------- [0:0 4:0 32 0] [32 0] 0 0
s 0.263177907 _0_ RTR  --- 47 tcp 1540 [0 0 0 0] ------- [0:0 4:0 30 4] [31 0] 0 0
s 0.263177907 _0_ RTR  --- 48 tcp 1540 [0 0 0 0] ------- [0:0 4:0 30 4] [32 0] 0 0
r 0.277123227 _4_ AGT  --- 24 tcp 1540 [13a 4 0 800] ------- [0:0 4:0 30 4] [16 0] 1 0
s 0.277123227 _4_ AGT  --- 49 ack 40 [0 0 0 0] ------- [4:0 0:0 32 0] [16 0] 0 0
r 0.277123227 _4_ RTR  --- 49 ack 40 [0 0 0 0] ------- [4:0 0:0 32 0] [16 0] 0 0
s 0.277123227 _4_ RTR  --- 49 ack 40 [0 0 0 0] ------- [4:0 0:0 30 0] [16 0] 0 0
r 0.278988546 _0_ AGT  --- 49 ack 40 [13a 0 4 800] ------- [4:0 0:0 30 0] [16 0] 1 0
s 0.278988546 _0_ AGT  --- 50 tcp 1540 [0 0 0 0] ------- [0:0 4:0 32 0] [33 0] 0 0
r 0.278988546 _0_ RTR  --- 50 tcp 1540 [0 0 0 0] ------- [0:0 4:0 32 0] [33 0] 0 0
s 0.278988546 _0_ AGT  --- 51 tcp 1540 [0 0 0 0] ------- [0:0 4:0 32 0] [34 0] 0 0
r 0.278988546 _0_ RTR  --- 51 tcp 1540 [0 0 0 0] ------- [0:0 4:0 32 0] [34 0] 0 0
s 0.278988546 _0_ RTR  --- 50 tcp 1540 [0 0 0 0] ------- [0:0 4:0 30 4] [33 0] 0 0
s 0.278988546 _0_ RTR  --- 51 tcp 1540 [0 0 0 0] ------- [0:0 4:0 30 4] [34 0] 0 0
r 0.293013866 _4_ AGT  --- 26 tcp 1540 [13a 4 0 800] ------- [0:0 4:0 30 4] [17 0] 1 0
s 0.293013866 _4_ AGT  --- 52 ack 40 [0 0 0 0] ------- [4:0 0:0 32 0] [17 0] 0 0
r 0.293013866 _4_ RTR  --- 52 ack 40 [0 0 0 0] ------- [4:0 0:0 32 0] [17 0] 0 0
s 0.293013866 _4_ RTR  --- 52 ack 40 [0 0 0 0] ------- [4:0 0:0 30 0] [17 0] 0 0
r 0.306839625 _4_ AGT  --- 27 tcp 1540 [13a 4 0 800] ------- [0:0 4:0 30 4] [18 0] 1 0
s 0.306839625 _4_ AGT  --- 53 ack 40 [0 0 0 0] ------- [4:0 0:0 32 0] [18 0] 0 0
r 0.306839625 _4_ RTR  --- 53 ack 40 [0 0 0 0] ------- [4:0 0:0 32 0] [18 0] 0 0
s 0.306839625 _4_ RTR  --- 53 ack 40 [0 0 0 0] ------- [4:0 0:0 30 0] [18 0] 0 0
r 0.320905384 _4_ AGT  --- 30 tcp 1540 [13a 4 0 800] ------- [0:0 4:0 30 4] [19 0] 1 0
s 0.320905384 _4_ AGT  --- 54 ack 40 [0 0 0 0] ------- [4:0 0:0 32 0] [19 0] 0 0
r 0.320905384 _4_ RTR  --- 54 ack 40 [0 0 0 0] ------- [4:0 0:0 32 0] [19 0] 0 0
s 0.320905384 _4_ RTR  --- 54 ack 40 [0 0 0 0] ------- [4:0 0:0 30 0] [19 0] 0 0
r 0.322790704 _0_ AGT  --- 52 ack 40 [13a 0 4 800] ------- [4:0 0:0 30 0] [17 0] 1 0
s 0.322790704 _0_ AGT  --- 55 tcp 1540 [0 0 0 0] ------- [0:0 4:0 32 0] [35 0] 0 0
r 0.322790704 _0_ RTR  --- 55 tcp 1540 [0 0 0 0] ------- [0:0 4:0 32 0] [35 0] 0 0
s 0.322790704 _0_ AGT  --- 56 tcp 1540 [0 0 0 0] ------- [0:0 4:0 32 0] [36 0] 0 0
r 0.322790704 _0_ RTR  --- 56 tcp 1540 [0 0 0 0] ------- [0:0 4:0 32 0] [36 0] 0 0
s 0.322790704 _0_ RTR  --- 55 tcp 1540 [0 0 0 0] ------- [0:0 4:0 30 4] [35 0] 0 0
s 0.322790704 _0_ RTR  --- 56 tcp 1540 [0 0 0 0] ------- [0:0 4:0 30 4] [36 0] 0 0
r 0.336856023 _4_ AGT  --- 31 tcp 1540 [13a 4 0 800] ------- [0:0 4:0 30 4] [20 0] 1 0
s 0.336856023 _4_ AGT  --- 57 ack 40 [0 0 0 0] ------- [4:0 0:0 32 0] [20 0] 0 0
r 0.336856023 _4_ RTR  --- 57 ack 40 [0 0 0 0] ------- [4:0 0:0 32 0] [20 0] 0 0
s 0.336856023 _4_ RTR  --- 57 ack 40 [0 0 0 0] ------- [4:0 0:0 30 0] [20 0] 0 0
r 0.350701782 _4_ AGT  --- 35 tcp 1540 [13a 4 0 800] ------- [0:0 4:0 30 4] [21 0] 1 0
s 0.350701782 _4_ AGT  --- 58 ack 40 [0 0 0 0] ------- [4:0 0:0 32 0] [21 0] 0 0
r 0.350701782 _4_ RTR  --- 58 ack 40 [0 0 0 0] ------- [4:0 0:0 32 0] [21 0] 0 0
s 0.350701782 _4_ RTR  --- 58 ack 40 [0 0 0 0] ------- [4:0 0:0 30 0] [21 0] 0 0
r 0.352547102 _0_ AGT  --- 53 ack 40 [13a 0 4 800] ------- [4:0 0:0 30 0] [18 0] 1 0
s 0.352547102 _0_ AGT  --- 59 tcp 1540 [0 0 0 0] ------- [0:0 4:0 32 0] [37 0] 0 0
r 0.352547102 _0_ RTR  --- 59 tcp 1540 [0 0 0 0] ------- [0:0 4:0 32 0] [37 0] 0 0
s 0.352547102 _0_ AGT  --- 60 tcp 1540 [0 0 0 0] ------- [0:0 4:0 32 0] [38 0] 0 0
r 0.352547102 _0_ RTR  --- 60 tcp 1540 [0 0 0 0] ------- [0:0 4:0 32 0] [38 0] 0 0
s 0.352547102 _0_ RTR  --- 59 tcp 1540 [0 0 0 0] ------- [0:0 4:0 30 4] [37 0] 0 0
s 0.352547102 _0_ RTR  --- 60 tcp 1540 [0 0 0 0] ------- [0:0 4:0 30 4] [38 0] 0 0
r 0.354612861 _0_ AGT  --- 54 ack 40 [13a 0 4 800] ------- [4:0 0:0 30 0] [19 0] 1 0
s 0.354612861 _0_ AGT  --- 61 tcp 1540 [0 0 0 0] ------- [0:0 4:0 32 0] [39 0] 0 0
r 0.354612861 _0_ RTR  --- 61 tcp 1540 [0 0 0 0] ------- [0:0 4:0 32 0] [39 0] 0 0
s 0.354612861 _0_ RTR  --- 61 tcp 1540 [0 0 0 0] ------- [0:0 4:0 30 4] [39 0] 0 0
r 0.356558621 _0_ AGT  --- 57 ack 40 [13a 0 4 800] ------- [4:0 0:0 30 0] [20 0] 1 0
s 0.356558621 _0_ AGT  --- 62 tcp 1540 [0 0 0 0] ------- [0:0 4:0 32 0] [40 0] 0 0
r 0.356558621 _0_ RTR  --- 62 tcp 1540 [0 0 0 0] ------- [0:0 4:0 32 0] [40 0] 0 0
s 0.356558621 _0_ RTR  --- 62 tcp 1540 [0 0 0 0] ------- [0:0 4:0 30 4] [40 0] 0 0
r 0.370483940 _4_ AGT  --- 36 tcp 1540 [13a 4 0 800] ------- [0:0 4:0 30 4] [22 0] 1 0
s 0.370483940 _4_ AGT  --- 63 ack 40 [0 0 0 0] ------- [4:0 0:0 32 0] [22 0] 0 0
r 0.370483940 _4_ RTR  --- 63 ack 40 [0 0 0 0] ------- [4:0 0:0 32 0] [22 0] 0 0
s 0.370483940 _4_ RTR  --- 63 ack 40 [0 0 0 0] ------- [4:0 0:0 30 0] [22 0] 0 0
r 0.384349699 _4_ AGT  --- 37 tcp 1540 [13a 4 0 800] ------- [0:0 4:0 30 4] [23 0] 1 0
s 0.384349699 _4_ AGT  --- 64 ack 40 [0 0 0 0] ------- [4:0 0:0 32 0] [23 0] 0 0
r 0.384349699 _4_ RTR  --- 64 ack 40 [0 0 0 0] ------- [4:0 0:0 32 0] [23 0] 0 0
s 0.384349699 _4_ RTR  --- 64 ack 40 [0 0 0 0] ------- [4:0 0:0 30 0] [23 0] 0 0
r 0.386355019 _0_ AGT  --- 58 ack 40 [13a 0 4 800] ------- [4:0 0:0 30 0] [21 0] 1 0
s 0.386355019 _0_ AGT  --- 65 tcp 1540 [0 0 0 0] ------- [0:0 4:0 32 0] [41 0] 0 0
r 0.386355019 _0_ RTR  --- 65 tcp 1540 [0 0 0 0] ------- [0:0 4:0 32 0] [41 0] 0 0
s 0.386355019 _0_ RTR  --- 65 tcp 1540 [0 0 0 0] ------- [0:0 4:0 30 4] [41 0] 0 0
r 0.388300778 _0_ AGT  --- 63 ack 40 [13a 0 4 800] ------- [4:0 0:0 30 0] [22 0] 1 0
s 0.388300778 _0_ AGT  --- 66 tcp 1540 [0 0 0 0] ------- [0:0 4:0 32 0] [42 0] 0 0
r 0.388300778 _0_ RTR  --- 66 tcp 1540 [0 0 0 0] ------- [0:0 4:0 32 0] [42 0] 0 0
s 0.388300778 _0_ RTR  --- 66 tcp 1540 [0 0 0 0] ------- [0:0 4:0 30 4] [42 0] 0 0
r 0.402286098 _4_ AGT  --- 38 tcp 1540 [13a 4 0 800] ------- [0:0 4:0 30 4] [24 0] 1 0
s 0.402286098 _4_ AGT  --- 67 ack 40 [0 0 0 0] ------- [4:0 0:0 32 0] [24 0] 0 0
r 0.402286098 _4_ RTR  --- 67 ack 40 [0 0 0 0] ------- [4:0 0:0 32 0] [24 0] 0 0
s 0.402286098 _4_ RTR  --- 67 ack 40 [0 0 0 0] ------- [4:0 0:0 30 0] [24 0] 0 0
r 0.404171417 _0_ AGT  --- 64 ack 40 [13a 0 4 800] ------- [4:0 0:0 30 0] [23 0] 1 0
s 0.404171417 _0_ AGT  --- 68 tcp 1540 [0 0 0 0] ------- [0:0 4:0 32 0] [43 0] 0 0
r 0.404171417 _0_ RTR  --- 68 tcp 1540 [0 0 0 0] ------- [0:0 4:0 32 0] [43 0] 0 0
s 0.404171417 _0_ RTR  --- 68 tcp 1540 [0 0 0 0] ------- [0:0 4:0 30 4] [43 0] 0 0
r 0.418036736 _4_ AGT  --- 39 tcp 1540 [13a 4 0 800] ------- [0:0 4:0 30 4] [25 0] 1 0
s 0.418036736 _4_ AGT  --- 69 ack 40 [0 0 0 0] ------- [4:0 0:0 32 0] [25 0] 0 0
r 0.418036736 _4_ RTR  --- 69 ack 40 [0 0 0 0] ------- [4:0 0:0 32 0] [25 0] 0 0
s 0.418036736 _4_ RTR  --- 69 ack 40 [0 0 0 0] ------- [4:0 0:0 30 0] [25 0] 0 0
r 0.419922056 _0_ AGT  --- 67 ack 40 [13a 0 4 800] ------- [4:0 0:0 30 0] [24 0] 1 0
s 0.419922056 _0_ AGT  --- 70 tcp 1540 [0 0 0 0] ------- [0:0 4:0 32 0] [44 0] 0 0
r 0.419922056 _0_ RTR  --- 70 tcp 1540 [0 0 0 0] ------- [0:0 4:0 32 0] [44 0] 0 0
s 0.419922056 _0_ RTR  --- 70 tcp 1540 [0 0 0 0] ------- [0:0 4:0 30 4] [44 0] 0 0
r 0.423293815 _0_ AGT  --- 69 ack 40 [13a 0 4 800] ------- [4:0 0:0 30 0] [25 0] 1 0
s 0.423293815 _0_ AGT  --- 71 tcp 1540 [0 0 0 0] ------- [0:0 4:0 32 0] [45 0] 0 0
r 0.423293815 _0_ RTR  --- 71 tcp 1540 [0 0 0 0] ------- [0:0 4:0 32 0] [45 0] 0 0
s 0.423293815 _0_ RTR  --- 71 tcp 1540 [0 0 0 0] ------- [0:0 4:0 30 4] [45 0] 0 0
r 0.437219135 _4_ AGT  --- 40 tcp 1540 [13a 4 0 800] ------- [0:0 4:0 30 4] [26 0] 1 0
s 0.437219135 _4_ AGT  --- 72 ack 40 [0 0 0 0] ------- [4:0 0:0 32 0] [26 0] 0 0
r 0.437219135 _4_ RTR  --- 72 ack 40 [0 0 0 0] ------- [4:0 0:0 32 0] [26 0] 0 0
s 0.437219135 _4_ RTR  --- 72 ack 40 [0 0 0 0] ------- [4:0 0:0 30 0] [26 0] 0 0
r 0.451164894 _4_ AGT  --- 41 tcp 1540 [13a 4 0 800] ------- [0:0 4:0 30 4] [27 0] 1 0
s 0.451164894 _4_ AGT  --- 73 ack 40 [0 0 0 0] ------- [4:0 0:0 32 0] [27 0] 0 0
r 0.451164894 _4_ RTR  --- 73 ack 40 [0 0 0 0] ------- [4:0 0:0 32 0] [27 0] 0 0
s 0.451164894 _4_ RTR  --- 73 ack 40 [0 0 0 0] ------- [4:0 0:0 30 0] [27 0] 0 0
r 0.465050653 _4_ AGT  --- 42 tcp 1540 [13a 4 0 800] ------- [0:0 4:0 30 4] [28 0] 1 0
s 0.465050653 _4_ AGT  --- 74 ack 40 [0 0 0 0] ------- [4:0 0:0 32 0] [28 0] 0 0
r 0.465050653 _4_ RTR  --- 74 ack 40 [0 0 0 0] ------- [4:0 0:0 32 0] [28 0] 0 0
s 0.465050653 _4_ RTR  --- 74 ack 40 [0 0 0 0] ------- [4:0 0:0 30 0] [28 0] 0 0
r 0.467215973 _0_ AGT  --- 72 ack 40 [13a 0 4 800] ------- [4:0 0:0 30 0] [26 0] 1 0
s 0.467215973 _0_ AGT  --- 75 tcp 1540 [0 0 0 0] ------- [0:0 4:0 32 0] [46 0] 0 0
r 0.467215973 _0_ RTR  --- 75 tcp 1540 [0 0 0 0] ------- [0:0 4:0 32 0] [46 0] 0 0
s 0.467215973 _0_ RTR  --- 75 tcp 1540 [0 0 0 0] ------- [0:0 4:0 30 4] [46 0] 0 0
r 0.469161732 _0_ AGT  --- 73 ack 40 [13a 0 4 800] ------- [4:0 0:0 30 0] [27 0] 1 0
s 0.469161732 _0_ AGT  --- 76 tcp 1540 [0 0 0 0] ------- [0:0 4:0 32 0] [47 0] 0 0
r 0.469161732 _0_ RTR  --- 76 tcp 1540 [0 0 0 0] ------- [0:0 4:0 32 0] [47 0] 0 0
s 0.469161732 _0_ RTR  --- 76 tcp 1540 [0 0 0 0] ------- [0:0 4:0 30 4] [47 0] 0 0
r 0.483107052 _4_ AGT  --- 44 tcp 1540 [13a 4 0 800] ------- [0:0 4:0 30 4] [29 0] 1 0
s 0.483107052 _4_ AGT  --- 77 ack 40 [0 0 0 0] ------- [4:0 0:0 32 0] [29 0] 0 0
r 0.483107052 _4_ RTR  --- 77 ack 40 [0 0 0 0] ------- [4:0 0:0 32 0] [29 0] 0 0
s 0.483107052 _4_ RTR  --- 77 ack 40 [0 0 0 0] ------- [4:0 0:0 30 0] [29 0] 0 0
r 0.497372811 _4_ AGT  --- 45 tcp 1540 [13a 4 0 800] ------- [0:0 4:0 30 4] [30 0] 1 0
s 0.497372811 _4_ AGT  --- 78 ack 40 [0 0 0 0] ------- [4:0 0:0 32 0] [30 0] 0 0
r 0.497372811 _4_ RTR  --- 78 ack 40 [0 0 0 0] ------- [4:0 0:0 32 0] [30 0] 0 0
s 0.497372811 _4_ RTR  --- 78 ack 40 [0 0 0 0] ------- [4:0 0:0 30 0] [30 0] 0 0
r 0.499238130 _0_ AGT  --- 74 ack 40 [13a 0 4 800] ------- [4:0 0:0 30 0] [28 0] 1 0
s 0.499238130 _0_ AGT  --- 79 tcp 1540 [0 0 0 0] ------- [0:0 4:0 32 0] [48 0] 0 0
r 0.499238130 _0_ RTR  --- 79 tcp 1540 [0 0 0 0] ------- [0:0 4:0 32 0] [48 0] 0 0
s 0.499238130 _0_ RTR  --- 79 tcp 1540 [0 0 0 0] ------- [0:0 4:0 30 4] [48 0] 0 0
r 0.501363890 _0_ AGT  --- 77 ack 40 [13a 0 4 800] ------- [4:0 0:0 30 0] [29 0] 1 0
s 0.501363890 _0_ AGT  --- 80 tcp 1540 [0 0 0 0] ------- [0:0 4:0 32 0] [49 0] 0 0
r 0.501363890 _0_ RTR  --- 80 tcp 1540 [0 0 0 0] ------- [0:0 4:0 32 0] [49 0] 0 0
s 0.501363890 _0_ RTR  --- 80 tcp 1540 [0 0 0 0] ------- [0:0 4:0 30 4] [49 0] 0 0
r 0.515409209 _4_ AGT  --- 47 tcp 1540 [13a 4 0 800] ------- [0:0 4:0 30 4] [31 0] 1 0
s 0.515409209 _4_ AGT  --- 81 ack 40 [0 0 0 0] ------- [4:0 0:0 32 0] [31 0] 0 0
r 0.515409209 _4_ RTR  --- 81 ack 40 [0 0 0 0] ------- [4:0 0:0 32 0] [31 0] 0 0
s 0.515409209 _4_ RTR  --- 81 ack 40 [0 0 0 0] ------- [4:0 0:0 30 0] [31 0] 0 0
r 0.517334529 _0_ AGT  --- 78 ack 40 [13a 0 4 800] ------- [4:0 0:0 30 0] [30 0] 1 0
s 0.517334529 _0_ AGT  --- 82 tcp 1540 [0 0 0 0] ------- [0:0 4:0 32 0] [50 0] 0 0
r 0.517334529 _0_ RTR  --- 82 tcp 1540 [0 0 0 0] ------- [0:0 4:0 32 0] [50 0] 0 0
s 0.517334529 _0_ RTR  --- 82 tcp 1540 [0 0 0 0] ------- [0:0 4:0 30 4] [50 0] 0 0
r 0.531379848 _4_ AGT  --- 48 tcp 1540 [13a 4 0 800] ------- [0:0 4:0 30 4] [32 0] 1 0
s 0.531379848 _4_ AGT  --- 83 ack 40 [0 0 0 0] ------- [4:0 0:0 32 0] [32 0] 0 0
r 0.531379848 _4_ RTR  --- 83 ack 40 [0 0 0 0] ------- [4:0 0:0 32 0] [32 0] 0 0
s 0.531379848 _4_ RTR  --- 83 ack 40 [0 0 0 0] ------- [4:0 0:0 30 0] [32 0] 0 0
r 0.545245607 _4_ AGT  --- 50 tcp 1540 [13a 4 0 800] ------- [0:0 4:0 30 4] [33 0] 1 0
s 0.545245607 _4_ AGT  --- 84 ack 40 [0 0 0 0] ------- [4:0 0:0 32 0] [33 0] 0 0
r 0.545245607 _4_ RTR  --- 84 ack 40 [0 0 0 0] ------- [4:0 0:0 32 0] [33 0] 0 0
s 0.545245607 _4_ RTR  --- 84 ack 40 [0 0 0 0] ------- [4:0 0:0 30 0] [33 0] 0 0
r 0.547170927 _0_ AGT  --- 81 ack 40 [13a 0 4 800] ------- [4:0 0:0 30 0] [31 0] 1 0
s 0.547170927 _0_ AGT  --- 85 tcp 1540 [0 0 0 0] ------- [0:0 4:0 32 0] [51 0] 0 0
r 0.547170927 _0_ RTR  --- 85 tcp 1540 [0 0 0 0] ------- [0:0 4:0 32 0] [51 0] 0 0
s 0.547170927 _0_ RTR  --- 85 tcp 1540 [0 0 0 0] ------- [0:0 4:0 30 4] [51 0] 0 0
r 0.549216686 _0_ AGT  --- 83 ack 40 [13a 0 4 800] ------- [4:0 0:0 30 0] [32 0] 1 0
s 0.549216686 _0_ AGT  --- 86 tcp 1540 [0 0 0 0] ------- [0:0 4:0 32 0] [52 0] 0 0
r 0.549216686 _0_ RTR  --- 86 tcp 1540 [0 0 0 0] ------- [0:0 4:0 32 0] [52 0] 0 0
s 0.549216686 _0_ RTR  --- 86 tcp 1540 [0 0 0 0] ------- [0:0 4:0 30 4] [52 0] 0 0
r 0.551222445 _0_ AGT  --- 84 ack 40 [13a 0 4 800] ------- [4:0 0:0 30 0] [33 0] 1 0
s 0.551222445 _0_ AGT  --- 87 tcp 1540 [0 0 0 0] ------- [0:0 4:0 32 0] [53 0] 0 0
r 0.551222445 _0_ RTR  --- 87 tcp 1540 [0 0 0 0] ------- [0:0 4:0 32 0] [53 0] 0 0
s 0.551222445 _0_ RTR  --- 87 tcp 1540 [0 0 0 0] ------- [0:0 4:0 30 4] [53 0] 0 0
r 0.565147765 _4_ AGT  --- 51 tcp 1540 [13a 4 0 800] ------- [0:0 4:0 30 4] [34 0] 1 0
s 0.565147765 _4_ AGT  --- 88 ack 40 [0 0 0 0] ------- [4:0 0:0 32 0] [34 0] 0 0
r 0.565147765 _4_ RTR  --- 88 ack 40 [0 0 0 0] ------- [4:0 0:0 32 0] [34 0] 0 0
s 0.565147765 _4_ RTR  --- 88 ack 40 [0 0 0 0] ------- [4:0 0:0 30 0] [34 0] 0 0
r 0.567053084 _0_ AGT  --- 88 ack 40 [13a 0 4 800] ------- [4:0 0:0 30 0] [34 0] 1 0
s 0.567053084 _0_ AGT  --- 89 tcp 1540 [0 0 0 0] ------- [0:0 4:0 32 0] [54 0] 0 0
r 0.567053084 _0_ RTR  --- 89 tcp 1540 [0 0 0 0] ------- [0:0 4:0 32 0] [54 0] 0 0
s 0.567053084 _0_ RTR  --- 89 tcp 1540 [0 0 0 0] ------- [0:0 4:0 30 4] [54 0] 0 0
r 0.581258404 _4_ AGT  --- 55 tcp 1540 [13a 4 0 800] ------- [0:0 4:0 30 4] [35 0] 1 0
s 0.581258404 _4_ AGT  --- 90 ack 40 [0 0 0 0] ------- [4:0 0:0 32 0] [35 0] 0 0
r 0.581258404 _4_ RTR  --- 90 ack 40 [0 0 0 0] ------- [4:0 0:0 32 0] [35 0] 0 0
s 0.581258404 _4_ RTR  --- 90 ack 40 [0 0 0 0] ------- [4:0 0:0 30 0] [35 0] 0 0
r 0.583103723 _0_ AGT  --- 90 ack 40 [13a 0 4 800] ------- [4:0 0:0 30 0] [35 0] 1 0
s 0.583103723 _0_ AGT  --- 91 tcp 1540 [0 0 0 0] ------- [0:0 4:0 32 0] [55 0] 0 0