n -t * -s 0  -x 808 -y 814 -Z 0 -z 25  -v circle -c black
n -t * -s 1  -x 600 -y 959 -Z 0 -z 25  -v circle -c black
n -t * -s 2  -x 385 -y 177 -Z 0 -z 25  -v circle -c black
n -t * -s 3  -x 740 -y 842 -Z 0 -z 25  -v circle -c black
n -t * -s 4  -x 959 -y 652 -Z 0 -z 25  -v circle -c black
V -t * -v 1.0a5 -a 0
W -t * -x 1000 -y 1000
A -t * -n 1 -p 0 -o 0x7fffffff -c 30 -a 1
A -t * -h 1 -m 1073741823 -s 0
n -t 1.000000 -s 0 -x 808.000000 -y 814.000000 -U -0.735595 -V -6.961243 -T 55.737175
n -t 1.000000 -s 1 -x 600.000000 -y 959.000000 -U -5.418484 -V -7.186100 -T 60.533533
n -t 1.000000 -s 2 -x 385.000000 -y 177.000000 -U 3.521481 -V 6.049725 -T 110.748843
n -t 1.000000 -s 3 -x 740.000000 -y 842.000000 -U -0.838981 -V -9.964743 -T 67.939532
n -t 1.000000 -s 4 -x 959.000000 -y 652.000000 -U -2.558695 -V 1.566231 -T 193.458006
+ -t 1.000000000 -s 0 -d -1 -p tcp -e 40 -c 2 -a 0 -i 0 -k AGT 
- -t 1.000000000 -s 0 -d -1 -p tcp -e 40 -c 2 -a 0 -i 0 -k AGT
h -t 1.000000000 -s 0 -d -1 -p tcp -e 40 -c 2 -a 0 -i 0 -k AGT
+ -t 1.000000000 -s 0 -d -1 -p AODV -e 48 -c 2 -a 0 -i 0 -k RTR 
- -t 1.000000000 -s 0 -d -1 -p AODV -e 48 -c 2 -a 0 -i 0 -k RTR
h -t 1.000000000 -s 0 -d -1 -p AODV -e 48 -c 2 -a 0 -i 0 -k RTR
r -t 1.000988245 -s 3 -d -1 -p AODV -e 48 -c 2 -a 0 -i 0 -k RTR
r -t 1.000988738 -s 4 -d -1 -p AODV -e 48 -c 2 -a 0 -i 0 -k RTR
+ -t 1.000988738 -s 4 -d 0 -p AODV -e 44 -c 2 -a 0 -i 0 -k RTR 
- -t 1.000988738 -s 4 -d 0 -p AODV -e 44 -c 2 -a 0 -i 0 -k RTR
h -t 1.000988738 -s 4 -d 0 -p AODV -e 44 -c 2 -a 0 -i 0 -k RTR
+ -t 1.001869472 -s 3 -d -1 -p AODV -e 48 -c 2 -a 0 -i 0 -k RTR 
- -t 1.001869472 -s 3 -d -1 -p AODV -e 48 -c 2 -a 0 -i 0 -k RTR
h -t 1.001869472 -s 3 -d -1 -p AODV -e 48 -c 2 -a 0 -i 0 -k RTR
+ -t 1.005771905 -s 0 -d 4 -p tcp -e 40 -c 2 -a 0 -i 0 -k RTR 
- -t 1.005771905 -s 0 -d 4 -p tcp -e 40 -c 2 -a 0 -i 0 -k RTR
h -t 1.005771905 -s 0 -d 4 -p tcp -e 40 -c 2 -a 0 -i 0 -k RTR
r -t 1.007034378 -s 0 -d -1 -p AODV -e 48 -c 2 -a 0 -i 0 -k RTR
r -t 1.007034742 -s 1 -d -1 -p AODV -e 48 -c 2 -a 0 -i 0 -k RTR
r -t 1.008566592 -s 4 -d 4 -p tcp -e 40 -c 2 -a 0 -i 0 -k AGT
+ -t 1.008566592 -s 4 -d -1 -p ack -e 40 -c 2 -a 0 -i 1 -k AGT 
- -t 1.008566592 -s 4 -d -1 -p ack -e 40 -c 2 -a 0 -i 1 -k AGT
h -t 1.008566592 -s 4 -d -1 -p ack -e 40 -c 2 -a 0 -i 1 -k AGT
+ -t 1.008566592 -s 4 -d 0 -p ack -e 40 -c 2 -a 0 -i 1 -k RTR 
- -t 1.008566592 -s 4 -d 0 -p ack -e 40 -c 2 -a 0 -i 1 -k RTR
h -t 1.008566592 -s 4 -d 0 -p ack -e 40 -c 2 -a 0 -i 1 -k RTR
r -t 1.010712806 -s 0 -d 0 -p ack -e 40 -c 2 -a 0 -i 1 -k AGT
+ -t 1.010712806 -s 0 -d -1 -p tcp -e 1540 -c 2 -a 0 -i 2 -k AGT 
- -t 1.010712806 -s 0 -d -1 -p tcp -e 1540 -c 2 -a 0 -i 2 -k AGT
h -t 1.010712806 -s 0 -d -1 -p tcp -e 1540 -c 2 -a 0 -i 2 -k AGT
+ -t 1.010712806 -s 0 -d -1 -p tcp -e 1540 -c 2 -a 0 -i 3 -k AGT 
- -t 1.010712806 -s 0 -d -1 -p tcp -e 1540 -c 2 -a 0 -i 3 -k AGT
h -t 1.010712806 -s 0 -d -1 -p tcp -e 1540 -c 2 -a 0 -i 3 -k AGT
+ -t 1.010712806 -s 0 -d 4 -p tcp -e 1540 -c 2 -a 0 -i 2 -k RTR 
- -t 1.010712806 -s 0 -d 4 -p tcp -e 1540 -c 2 -a 0 -i 2 -k RTR
h -t 1.010712806 -s 0 -d 4 -p tcp -e 1540 -c 2 -a 0 -i 2 -k RTR
+ -t 1.010712806 -s 0 -d 4 -p tcp -e 1540 -c 2 -a 0 -i 3 -k RTR 
- -t 1.010712806 -s 0 -d 4 -p tcp -e 1540 -c 2 -a 0 -i 3 -k RTR
h -t 1.010712806 -s 0 -d 4 -p tcp -e 1540 -c 2 -a 0 -i 3 -k RTR
+ -t 1.015397977 -s 1 -d -1 -p AODV -e 48 -c 2 -a 0 -i 0 -k RTR 
- -t 1.015397977 -s 1 -d -1 -p AODV -e 48 -c 2 -a 0 -i 0 -k RTR
h -t 1.015397977 -s 1 -d -1 -p AODV -e 48 -c 2 -a 0 -i 0 -k RTR
r -t 1.025079020 -s 4 -d 4 -p tcp -e 1540 -c 2 -a 0 -i 2 -k AGT
+ -t 1.025079020 -s 4 -d -1 -p ack -e 40 -c 2 -a 0 -i 4 -k AGT 
- -t 1.025079020 -s 4 -d -1 -p ack -e 40 -c 2 -a 0 -i 4 -k AGT
h -t 1.025079020 -s 4 -d -1 -p ack -e 40 -c 2 -a 0 -i 4 -k AGT
+ -t 1.025079020 -s 4 -d 0 -p ack -e 40 -c 2 -a 0 -i 4 -k RTR 
- -t 1.025079020 -s 4 -d 0 -p ack -e 40 -c 2 -a 0 -i 4 -k RTR
h -t 1.025079020 -s 4 -d 0 -p ack -e 40 -c 2 -a 0 -i 4 -k RTR
r -t 1.039065970 -s 4 -d 4 -p tcp -e 1540 -c 2 -a 0 -i 3 -k AGT
+ -t 1.039065970 -s 4 -d -1 -p ack -e 40 -c 2 -a 0 -i 5 -k AGT 
- -t 1.039065970 -s 4 -d -1 -p ack -e 40 -c 2 -a 0 -i 5 -k AGT
h -t 1.039065970 -s 4 -d -1 -p ack -e 40 -c 2 -a 0 -i 5 -k AGT
+ -t 1.039065970 -s 4 -d 0 -p ack -e 40 -c 2 -a 0 -i 5 -k RTR 
- -t 1.039065970 -s 4 -d 0 -p ack -e 40 -c 2 -a 0 -i 5 -k RTR
h -t 1.039065970 -s 4 -d 0 -p ack -e 40 -c 2 -a 0 -i 5 -k RTR
r -t 1.040972182 -s 0 -d 0 -p ack -e 40 -c 2 -a 0 -i 4 -k AGT
+ -t 1.040972182 -s 0 -d -1 -p tcp -e 1540 -c 2 -a 0 -i 6 -k AGT 
- -t 1.040972182 -s 0 -d -1 -p tcp -e 1540 -c 2 -a 0 -i 6 -k AGT
h -t 1.040972182 -s 0 -d -1 -p tcp -e 1540 -c 2 -a 0 -i 6 -k AGT
+ -t 1.040972182 -s 0 -d -1 -p tcp -e 1540 -c 2 -a 0 -i 7 -k AGT 
- -t 1.040972182 -s 0 -d -1 -p tcp -e 1540 -c 2 -a 0 -i 7 -k AGT
h -t 1.040972182 -s 0 -d -1 -p tcp -e 1540 -c 2 -a 0 -i 7 -k AGT
+ -t 1.040972182 -s 0 -d 4 -p tcp -e 1540 -c 2 -a 0 -i 6 -k RTR 
- -t 1.040972182 -s 0 -d 4 -p tcp -e 1540 -c 2 -a 0 -i 6 -k RTR
h -t 1.040972182 -s 0 -d 4 -p tcp -e 1540 -c 2 -a 0 -i 6 -k RTR
+ -t 1.040972182 -s 0 -d 4 -p tcp -e 1540 -c 2 -a 0 -i 7 -k RTR 
- -t 1.040972182 -s 0 -d 4 -p tcp -e 1540 -c 2 -a 0 -i 7 -k RTR
h -t 1.040972182 -s 0 -d 4 -p tcp -e 1540 -c 2 -a 0 -i 7 -k RTR
r -t 1.043139131 -s 0 -d 0 -p ack -e 40 -c 2 -a 0 -i 5 -k AGT
+ -t 1.043139131 -s 0 -d -1 -p tcp -e 1540 -c 2 -a 0 -i 8 -k AGT 
- -t 1.043139131 -s 0 -d -1 -p tcp -e 1540 -c 2 -a 0 -i 8 -k AGT
h -t 1.043139131 -s 0 -d -1 -p tcp -e 1540 -c 2 -a 0 -i 8 -k AGT
+ -t 1.043139131 -s 0 -d -1 -p tcp -e 1540 -c 2 -a 0 -i 9 -k AGT 
- -t 1.043139131 -s 0 -d -1 -p tcp -e 1540 -c 2 -a 0 -i 9 -k AGT
h -t 1.043139131 -s 0 -d -1 -p tcp -e 1540 -c 2 -a 0 -i 9 -k AGT
+ -t 1.043139131 -s 0 -d 4 -p tcp -e 1540 -c 2 -a 0 -i 8 -k RTR 
- -t 1.043139131 -s 0 -d 4 -p tcp -e 1540 -c 2 -a 0 -i 8 -k RTR
h -t 1.043139131 -s 0 -d 4 -p tcp -e 1540 -c 2 -a 0 -i 8 -k RTR
+ -t 1.043139131 -s 0 -d 4 -p tcp -e 1540 -c 2 -a 0 -i 9 -k RTR 
- -t 1.043139131 -s 0 -d 4 -p tcp -e 1540 -c 2 -a 0 -i 9 -k RTR
h -t 1.043139131 -s 0 -d 4 -p tcp -e 1540 -c 2 -a 0 -i 9 -k RTR
r -t 1.057045342 -s 4 -d 4 -p tcp -e 1540 -c 2 -a 0 -i 6 -k AGT
+ -t 1.057045342 -s 4 -d -1 -p ack -e 40 -c 2 -a 0 -i 10 -k AGT 
- -t 1.057045342 -s 4 -d -1 -p ack -e 40 -c 2 -a 0 -i 10 -k AGT
h -t 1.057045342 -s 4 -d -1 -p ack -e 40 -c 2 -a 0 -i 10 -k AGT
+ -t 1.057045342 -s 4 -d 0 -p ack -e 40 -c 2 -a 0 -i 10 -k RTR 
- -t 1.057045342 -s 4 -d 0 -p ack -e 40 -c 2 -a 0 -i 10 -k RTR
h -t 1.057045342 -s 4 -d 0 -p ack -e 40 -c 2 -a 0 -i 10 -k RTR
r -t 1.071072289 -s 4 -d 4 -p tcp -e 1540 -c 2 -a 0 -i 7 -k AGT
+ -t 1.071072289 -s 4 -d -1 -p ack -e 40 -c 2 -a 0 -i 11 -k AGT 
- -t 1.071072289 -s 4 -d -1 -p ack -e 40 -c 2 -a 0 -i 11 -k AGT
h -t 1.071072289 -s 4 -d -1 -p ack -e 40 -c 2 -a 0 -i 11 -k AGT
+ -t 1.071072289 -s 4 -d 0 -p ack -e 40 -c 2 -a 0 -i 11 -k RTR 
- -t 1.071072289 -s 4 -d 0 -p ack -e 40 -c 2 -a 0 -i 11 -k RTR
h -t 1.071072289 -s 4 -d 0 -p ack -e 40 -c 2 -a 0 -i 11 -k RTR
r -t 1.072958498 -s 0 -d 0 -p ack -e 40 -c 2 -a 0 -i 10 -k AGT
+ -t 1.072958498 -s 0 -d -1 -p tcp -e 1540 -c 2 -a 0 -i 12 -k AGT 
- -t 1.072958498 -s 0 -d -1 -p tcp -e 1540 -c 2 -a 0 -i 12 -k AGT
h -t 1.072958498 -s 0 -d -1 -p tcp -e 1540 -c 2 -a 0 -i 12 -k AGT
+ -t 1.072958498 -s 0 -d -1 -p tcp -e 1540 -c 2 -a 0 -i 13 -k AGT 
- -t 1.072958498 -s 0 -d -1 -p tcp -e 1540 -c 2 -a 0 -i 13 -k AGT
h -t 1.072958498 -s 0 -d -1 -p tcp -e 1540 -c 2 -a 0 -i 13 -k AGT
+ -t 1.072958498 -s 0 -d 4 -p tcp -e 1540 -c 2 -a 0 -i 12 -k RTR 
- -t 1.072958498 -s 0 -d 4 -p tcp -e 1540 -c 2 -a 0 -i 12 -k RTR
h -t 1.072958498 -s 0 -d 4 -p tcp -e 1540 -c 2 -a 0 -i 12 -k RTR
+ -t 1.072958498 -s 0 -d 4 -p tcp -e 1540 -c 2 -a 0 -i 13 -k RTR 
- -t 1.072958498 -s 0 -d 4 -p tcp -e 1540 -c 2 -a 0 -i 13 -k RTR
h -t 1.072958498 -s 0 -d 4 -p tcp -e 1540 -c 2 -a 0 -i 13 -k RTR
r -t 1.074805444 -s 0 -d 0 -p ack -e 40 -c 2 -a 0 -i 11 -k AGT
+ -t 1.074805444 -s 0 -d -1 -p tcp -e 1540 -c 2 -a 0 -i 14 -k AGT 
- -t 1.074805444 -s 0 -d -1 -p tcp -e 1540 -c 2 -a 0 -i 14 -k AGT
h -t 1.074805444 -s 0 -d -1 -p tcp -e 1540 -c 2 -a 0 -i 14 -k AGT
+ -t 1.074805444 -s 0 -d -1 -p tcp -e 1540 -c 2 -a 0 -i 15 -k AGT 
- -t 1.074805444 -s 0 -d -1 -p tcp -e 1540 -c 2 -a 0 -i 15 -k AGT
h -t 1.074805444 -s 0 -d -1 -p tcp -e 1540 -c 2 -a 0 -i 15 -k AGT
+ -t 1.074805444 -s 0 -d 4 -p tcp -e 1540 -c 2 -a 0 -i 14 -k RTR 
- -t 1.074805444 -s 0 -d 4 -p tcp -e 1540 -c 2 -a 0 -i 14 -k RTR
h -t 1.074805444 -s 0 -d 4 -p tcp -e 1540 -c 2 -a 0 -i 14 -k RTR
+ -t 1.074805444 -s 0 -d 4 -p tcp -e 1540 -c 2 -a 0 -i 15 -k RTR 
- -t 1.074805444 -s 0 -d 4 -p tcp -e 1540 -c 2 -a 0 -i 15 -k RTR
h -t 1.074805444 -s 0 -d 4 -p tcp -e 1540 -c 2 -a 0 -i 15 -k RTR
r -t 1.088791653 -s 4 -d 4 -p tcp -e 1540 -c 2 -a 0 -i 8 -k AGT
+ -t 1.088791653 -s 4 -d -1 -p ack -e 40 -c 2 -a 0 -i 16 -k AGT 
- -t 1.088791653 -s 4 -d -1 -p ack -e 40 -c 2 -a 0 -i 16 -k AGT
h -t 1.088791653 -s 4 -d -1 -p ack -e 40 -c 2 -a 0 -i 16 -k AGT
+ -t 1.088791653 -s 4 -d 0 -p ack -e 40 -c 2 -a 0 -i 16 -k RTR 
- -t 1.088791653 -s 4 -d 0 -p ack -e 40 -c 2 -a 0 -i 16 -k RTR
h -t 1.088791653 -s 4 -d 0 -p ack -e 40 -c 2 -a 0 -i 16 -k RTR
r -t 1.090717861 -s 0 -d 0 -p ack -e 40 -c 2 -a 0 -i 16 -k AGT
+ -t 1.090717861 -s 0 -d -1 -p tcp -e 1540 -c 2 -a 0 -i 17 -k AGT 
- -t 1.090717861 -s 0 -d -1 -p tcp -e 1540 -c 2 -a 0 -i 17 -k AGT
h -t 1.090717861 -s 0 -d -1 -p tcp -e 1540 -c 2 -a 0 -i 17 -k AGT
+ -t 1.090717861 -s 0 -d -1 -p tcp -e 1540 -c 2 -a 0 -i 18 -k AGT 
- -t 1.090717861 -s 0 -d -1 -p tcp -e 1540 -c 2 -a 0 -i 18 -k AGT
h -t 1.090717861 -s 0 -d -1 -p tcp -e 1540 -c 2 -a 0 -i 18 -k AGT
+ -t 1.090717861 -s 0 -d 4 -p tcp -e 1540 -c 2 -a 0 -i 17 -k RTR 
- -t 1.090717861 -s 0 -d 4 -p tcp -e 1540 -c 2 -a 0 -i 17 -k RTR
h -t 1.090717861 -s 0 -d 4 -p tcp -e 1540 -c 2 -a 0 -i 17 -k RTR
+ -t 1.090717861 -s 0 -d 4 -p tcp -e 1540 -c 2 -a 0 -i 18 -k RTR 
- -t 1.090717861 -s 0 -d 4 -p tcp -e 1540 -c 2 -a 0 -i 18 -k RTR
h -t 1.090717861 -s 0 -d 4 -p tcp -e 1540 -c 2 -a 0 -i 18 -k RTR
r -t 1.104904068 -s 4 -d 4 -p tcp -e 1540 -c 2 -a 0 -i 9 -k AGT
+ -t 1.104904068 -s 4 -d -1 -p ack -e 40 -c 2 -a 0 -i 19 -k AGT 
- -t 1.104904068 -s 4 -d -1 -p ack -e 40 -c 2 -a 0 -i 19 -k AGT
h -t 1.104904068 -s 4 -d -1 -p ack -e 40 -c 2 -a 0 -i 19 -k AGT
+ -t 1.104904068 -s 4 -d 0 -p ack -e 40 -c 2 -a 0 -i 19 -k RTR 
- -t 1.104904068 -s 4 -d 0 -p ack -e 40 -c 2 -a 0 -i 19 -k RTR
h -t 1.104904068 -s 4 -d 0 -p ack -e 40 -c 2 -a 0 -i 19 -k RTR
r -t 1.119131011 -s 4 -d 4 -p tcp -e 1540 -c 2 -a 0 -i 12 -k AGT
+ -t 1.119131011 -s 4 -d -1 -p ack -e 40 -c 2 -a 0 -i 20 -k AGT 
- -t 1.119131011 -s 4 -d -1 -p ack -e 40 -c 2 -a 0 -i 20 -k AGT
h -t 1.119131011 -s 4 -d -1 -p ack -e 40 -c 2 -a 0 -i 20 -k AGT
+ -t 1.119131011 -s 4 -d 0 -p ack -e 40 -c 2 -a 0 -i 20 -k RTR 
- -t 1.119131011 -s 4 -d 0 -p ack -e 40 -c 2 -a 0 -i 20 -k RTR
h -t 1.119131011 -s 4 -d 0 -p ack -e 40 -c 2 -a 0 -i 20 -k RTR
r -t 1.121137216 -s 0 -d 0 -p ack -e 40 -c 2 -a 0 -i 19 -k AGT
+ -t 1.121137216 -s 0 -d -1 -p tcp -e 1540 -c 2 -a 0 -i 21 -k AGT 
- -t 1.121137216 -s 0 -d -1 -p tcp -e 1540 -c 2 -a 0 -i 21 -k AGT
h -t 1.121137216 -s 0 -d -1 -p tcp -e 1540 -c 2 -a 0 -i 21 -k AGT
+ -t 1.121137216 -s 0 -d -1 -p tcp -e 1540 -c 2 -a 0 -i 22 -k AGT 
- -t 1.121137216 -s 0 -d -1 -p tcp -e 1540 -c 2 -a 0 -i 22 -k AGT
h -t 1.121137216 -s 0 -d -1 -p tcp -e 1540 -c 2 -a 0 -i 22 -k AGT
+ -t 1.121137216 -s 0 -d 4 -p tcp -e 1540 -c 2 -a 0 -i 21 -k RTR 
- -t 1.121137216 -s 0 -d 4 -p tcp -e 1540 -c 2 -a 0 -i 21 -k RTR
h -t 1.121137216 -s 0 -d 4 -p tcp -e 1540 -c 2 -a 0 -i 21 -k RTR
+ -t 1.121137216 -s 0 -d 4 -p tcp -e 1540 -c 2 -a 0 -i 22 -k RTR 
- -t 1.121137216 -s 0 -d 4 -p tcp -e 1540 -c 2 -a 0 -i 22 -k RTR
h -t 1.121137216 -s 0 -d 4 -p tcp -e 1540 -c 2 -a 0 -i 22 -k RTR
r -t 1.123324157 -s 0 -d 0 -p ack -e 40 -c 2 -a 0 -i 20 -k AGT
+ -t 1.123324157 -s 0 -d -1 -p tcp -e 1540 -c 2 -a 0 -i 23 -k AGT 
- -t 1.123324157 -s 0 -d -1 -p tcp -e 1540 -c 2 -a 0 -i 23 -k AGT
h -t 1.123324157 -s 0 -d -1 -p tcp -e 1540 -c 2 -a 0 -i 23 -k AGT
+ -t 1.123324157 -s 0 -d -1 -p tcp -e 1540 -c 2 -a 0 -i 24 -k AGT 
- -t 1.123324157 -s 0 -d -1 -p tcp -e 1540 -c 2 -a 0 -i 24 -k AGT
h -t 1.123324157 -s 0 -d -1 -p tcp -e 1540 -c 2 -a 0 -i 24 -k AGT
+ -t 1.123324157 -s 0 -d 4 -p tcp -e 1540 -c 2 -a 0 -i 23 -k RTR 
- -t 1.123324157 -s 0 -d 4 -p tcp -e 1540 -c 2 -a 0 -i 23 -k RTR
h -t 1.123324157 -s 0 -d 4 -p tcp -e 1540 -c 2 -a 0 -i 23 -k RTR
+ -t 1.123324157 -s 0 -d 4 -p tcp -e 1540 -c 2 -a 0 -i 24 -k RTR 
- -t 1.123324157 -s 0 -d 4 -p tcp -e 1540 -c 2 -a 0 -i 24 -k RTR
h -t 1.123324157 -s 0 -d 4 -p tcp -e 1540 -c 2 -a 0 -i 24 -k RTR
r -t 1.137170362 -s 4 -d 4 -p tcp -e 1540 -c 2 -a 0 -i 13 -k AGT
+ -t 1.137170362 -s 4 -d -1 -p ack -e 40 -c 2 -a 0 -i 25 -k AGT 
- -t 1.137170362 -s 4 -d -1 -p ack -e 40 -c 2 -a 0 -i 25 -k AGT
h -t 1.137170362 -s 4 -d -1 -p ack -e 40 -c 2 -a 0 -i 25 -k AGT
+ -t 1.137170362 -s 4 -d 0 -p ack -e 40 -c 2 -a 0 -i 25 -k RTR 
- -t 1.137170362 -s 4 -d 0 -p ack -e 40 -c 2 -a 0 -i 25 -k RTR
h -t 1.137170362 -s 4 -d 0 -p ack -e 40 -c 2 -a 0 -i 25 -k RTR
r -t 1.139036567 -s 0 -d 0 -p ack -e 40 -c 2 -a 0 -i 25 -k AGT
+ -t 1.139036567 -s 0 -d -1 -p tcp -e 1540 -c 2 -a 0 -i 26 -k AGT 
- -t 1.139036567 -s 0 -d -1 -p tcp -e 1540 -c 2 -a 0 -i 26 -k AGT
h -t 1.139036567 -s 0 -d -1 -p tcp -e 1540 -c 2 -a 0 -i 26 -k AGT
+ -t 1.139036567 -s 0 -d -1 -p tcp -e 1540 -c 2 -a 0 -i 27 -k AGT 
- -t 1.139036567 -s 0 -d -1 -p tcp -e 1540 -c 2 -a 0 -i 27 -k AGT
h -t 1.139036567 -s 0 -d -1 -p tcp -e 1540 -c 2 -a 0 -i 27 -k AGT
+ -t 1.139036567 -s 0 -d 4 -p tcp -e 1540 -c 2 -a 0 -i 26 -k RTR 
- -t 1.139036567 -s 0 -d 4 -p tcp -e 1540 -c 2 -a 0 -i 26 -k RTR
h -t 1.139036567 -s 0 -d 4 -p tcp -e 1540 -c 2 -a 0 -i 26 -k RTR
+ -t 1.139036567 -s 0 -d 4 -p tcp -e 1540 -c 2 -a 0 -i 27 -k RTR 
- -t 1.139036567 -s 0 -d 4 -p tcp -e 1540 -c 2 -a 0 -i 27 -k RTR
h -t 1.139036567 -s 0 -d 4 -p tcp -e 1540 -c 2 -a 0 -i 27 -k RTR
r -t 1.153142771 -s 4 -d 4 -p tcp -e 1540 -c 2 -a 0 -i 14 -k AGT
+ -t 1.153142771 -s 4 -d -1 -p ack -e 40 -c 2 -a 0 -i 28 -k AGT 
- -t 1.153142771 -s 4 -d -1 -p ack -e 40 -c 2 -a 0 -i 28 -k AGT
h -t 1.153142771 -s 4 -d -1 -p ack -e 40 -c 2 -a 0 -i 28 -k AGT
+ -t 1.153142771 -s 4 -d 0 -p ack -e 40 -c 2 -a 0 -i 28 -k RTR 
- -t 1.153142771 -s 4 -d 0 -p ack -e 40 -c 2 -a 0 -i 28 -k RTR
h -t 1.153142771 -s 4 -d 0 -p ack -e 40 -c 2 -a 0 -i 28 -k RTR
r -t 1.155068974 -s 0 -d 0 -p ack -e 40 -c 2 -a 0 -i 28 -k AGT
+ -t 1.155068974 -s 0 -d -1 -p tcp -e 1540 -c 2 -a 0 -i 29 -k AGT 
- -t 1.155068974 -s 0 -d -1 -p tcp -e 1540 -c 2 -a 0 -i 29 -k AGT
h -t 1.155068974 -s 0 -d -1 -p tcp -e 1540 -c 2 -a 0 -i 29 -k AGT
+ -t 1.155068974 -s 0 -d -1 -p tcp -e 1540 -c 2 -a 0 -i 30 -k AGT 
- -t 1.155068974 -s 0 -d -1 -p tcp -e 1540 -c 2 -a 0 -i 30 -k AGT
h -t 1.155068974 -s 0 -d -1 -p tcp -e 1540 -c 2 -a 0 -i 30 -k AGT
+ -t 1.155068974 -s 0 -d 4 -p tcp -e 1540 -c 2 -a 0 -i 29 -k RTR 
- -t 1.155068974 -s 0 -d 4 -p tcp -e 1540 -c 2 -a 0 -i 29 -k RTR
h -t 1.155068974 -s 0 -d 4 -p tcp -e 1540 -c 2 -a 0 -i 29 -k RTR
+ -t 1.155068974 -s 0 -d 4 -p tcp -e 1540 -c 2 -a 0 -i 30 -k RTR 
- -t 1.155068974 -s 0 -d 4 -p tcp -e 1540 -c 2 -a 0 -i 30 -k RTR
h -t 1.155068974 -s 0 -d 4 -p tcp -e 1540 -c 2 -a 0 -i 30 -k RTR
r -t 1.168955177 -s 4 -d 4 -p tcp -e 1540 -c 2 -a 0 -i 15 -k AGT
+ -t 1.168955177 -s 4 -d -1 -p ack -e 40 -c 2 -a 0 -i 31 -k AGT 
- -t 1.168955177 -s 4 -d -1 -p ack -e 40 -c 2 -a 0 -i 31 -k AGT
h -t 1.168955177 -s 4 -d -1 -p ack -e 40 -c 2 -a 0 -i 31 -k AGT
+ -t 1.168955177 -s 4 -d 0 -p ack -e 40 -c 2 -a 0 -i 31 -k RTR 
- -t 1.168955177 -s 4 -d 0 -p ack -e 40 -c 2 -a 0 -i 31 -k RTR
h -t 1.168955177 -s 4 -d 0 -p ack -e 40 -c 2 -a 0 -i 31 -k RTR
r -t 1.170821379 -s 0 -d 0 -p ack -e 40 -c 2 -a 0 -i 31 -k AGT
+ -t 1.170821379 -s 0 -d -1 -p tcp -e 1540 -c 2 -a 0 -i 32 -k AGT 
- -t 1.170821379 -s 0 -d -1 -p tcp -e 1540 -c 2 -a 0 -i 32 -k AGT
h -t 1.170821379 -s 0 -d -1 -p tcp -e 1540 -c 2 -a 0 -i 32 -k AGT
+ -t 1.170821379 -s 0 -d -1 -p tcp -e 1540 -c 2 -a 0 -i 33 -k AGT 
- -t 1.170821379 -s 0 -d -1 -p tcp -e 1540 -c 2 -a 0 -i 33 -k AGT
h -t 1.170821379 -s 0 -d -1 -p tcp -e 1540 -c 2 -a 0 -i 33 -k AGT
+ -t 1.170821379 -s 0 -d 4 -p tcp -e 1540 -c 2 -a 0 -i 32 -k RTR 
- -t 1.170821379 -s 0 -d 4 -p tcp -e 1540 -c 2 -a 0 -i 32 -k RTR
h -t 1.170821379 -s 0 -d 4 -p tcp -e 1540 -c 2 -a 0 -i 32 -k RTR
+ -t 1.170821379 -s 0 -d 4 -p tcp -e 1540 -c 2 -a 0 -i 33 -k RTR 
- -t 1.170821379 -s 0 -d 4 -p tcp -e 1540 -c 2 -a 0 -i 33 -k RTR
h -t 1.170821379 -s 0 -d 4 -p tcp -e 1540 -c 2 -a 0 -i 33 -k RTR
r -t 1.184907580 -s 4 -d 4 -p tcp -e 1540 -c 2 -a 0 -i 17 -k AGT
+ -t 1.184907580 -s 4 -d -1 -p ack -e 40 -c 2 -a 0 -i 34 -k AGT 
- -t 1.184907580 -s 4 -d -1 -p ack -e 40 -c 2 -a 0 -i 34 -k AGT
h -t 1.184907580 -s 4 -d -1 -p ack -e 40 -c 2 -a 0 -i 34 -k AGT
+ -t 1.184907580 -s 4 -d 0 -p ack -e 40 -c 2 -a 0 -i 34 -k RTR 
- -t 1.184907580 -s 4 -d 0 -p ack -e 40 -c 2 -a 0 -i 34 -k RTR
h -t 1.184907580 -s 4 -d 0 -p ack -e 40 -c 2 -a 0 -i 34 -k RTR
r -t 1.186833781 -s 0 -d 0 -p ack -e 40 -c 2 -a 0 -i 34 -k AGT
+ -t 1.186833781 -s 0 -d -1 -p tcp -e 1540 -c 2 -a 0 -i 35 -k AGT 
- -t 1.186833781 -s 0 -d -1 -p tcp -e 1540 -c 2 -a 0 -i 35 -k AGT
h -t 1.186833781 -s 0 -d -1 -p tcp -e 1540 -c 2 -a 0 -i 35 -k AGT
+ -t 1.186833781 -s 0 -d -1 -p tcp -e 1540 -c 2 -a 0 -i 36 -k AGT 
- -t 1.186833781 -s 0 -d -1 -p tcp -e 1540 -c 2 -a 0 -i 36 -k AGT
h -t 1.186833781 -s 0 -d -1 -p tcp -e 1540 -c 2 -a 0 -i 36 -k AGT
+ -t 1.186833781 -s 0 -d 4 -p tcp -e 1540 -c 2 -a 0 -i 35 -k RTR 
- -t 1.186833781 -s 0 -d 4 -p tcp -e 1540 -c 2 -a 0 -i 35 -k RTR
h -t 1.186833781 -s 0 -d 4 -p tcp -e 1540 -c 2 -a 0 -i 35 -k RTR
+ -t 1.186833781 -s 0 -d 4 -p tcp -e 1540 -c 2 -a 0 -i 36 -k RTR 
- -t 1.186833781 -s 0 -d 4 -p tcp -e 1540 -c 2 -a 0 -i 36 -k RTR
h -t 1.186833781 -s 0 -d 4 -p tcp -e 1540 -c 2 -a 0 -i 36 -k RTR
r -t 1.201099982 -s 4 -d 4 -p tcp -e 1540 -c 2 -a 0 -i 18 -k AGT
+ -t 1.201099982 -s 4 -d -1 -p ack -e 40 -c 2 -a 0 -i 37 -k AGT 
- -t 1.201099982 -s 4 -d -1 -p ack -e 40 -c 2 -a 0 -i 37 -k AGT
h -t 1.201099982 -s 4 -d -1 -p ack -e 40 -c 2 -a 0 -i 37 -k AGT
+ -t 1.201099982 -s 4 -d 0 -p ack -e 40 -c 2 -a 0 -i 37 -k RTR 
- -t 1.201099982 -s 4 -d 0 -p ack -e 40 -c 2 -a 0 -i 37 -k RTR
h -t 1.201099982 -s 4 -d 0 -p ack -e 40 -c 2 -a 0 -i 37 -k RTR
r -t 1.203126181 -s 0 -d 0 -p ack -e 40 -c 2 -a 0 -i 37 -k AGT
+ -t 1.203126181 -s 0 -d -1 -p tcp -e 1540 -c 2 -a 0 -i 38 -k AGT 
- -t 1.203126181 -s 0 -d -1 -p tcp -e 1540 -c 2 -a 0 -i 38 -k AGT
h -t 1.203126181 -s 0 -d -1 -p tcp -e 1540 -c 2 -a 0 -i 38 -k AGT
+ -t 1.203126181 -s 0 -d -1 -p tcp -e 1540 -c 2 -a 0 -i 39 -k AGT 
- -t 1.203126181 -s 0 -d -1 -p tcp -e 1540 -c 2 -a 0 -i 39 -k AGT
h -t 1.203126181 -s 0 -d -1 -p tcp -e 1540 -c 2 -a 0 -i 39 -k AGT
+ -t 1.203126181 -s 0 -d 4 -p tcp -e 1540 -c 2 -a 0 -i 38 -k RTR 
- -t 1.203126181 -s 0 -d 4 -p tcp -e 1540 -c 2 -a 0 -i 38 -k RTR
h -t 1.203126181 -s 0 -d 4 -p tcp -e 1540 -c 2 -a 0 -i 38 -k RTR
+ -t 1.203126181 -s 0 -d 4 -p tcp -e 1540 -c 2 -a 0 -i 39 -k RTR 
- -t 1.203126181 -s 0 -d 4 -p tcp -e 1540 -c 2 -a 0 -i 39 -k RTR
h -t 1.203126181 -s 0 -d 4 -p tcp -e 1540 -c 2 -a 0 -i 39 -k RTR
r -t 1.217352381 -s 4 -d 4 -p tcp -e 1540 -c 2 -a 0 -i 21 -k AGT
+ -t 1.217352381 -s 4 -d -1 -p ack -e 40 -c 2 -a 0 -i 40 -k AGT 
- -t 1.217352381 -s 4 -d -1 -p ack -e 40 -c 2 -a 0 -i 40 -k AGT
h -t 1.217352381 -s 4 -d -1 -p ack -e 40 -c 2 -a 0 -i 40 -k AGT
+ -t 1.217352381 -s 4 -d 0 -p ack -e 40 -c 2 -a 0 -i 40 -k RTR 
- -t 1.217352381 -s 4 -d 0 -p ack -e 40 -c 2 -a 0 -i 40 -k RTR
h -t 1.217352381 -s 4 -d 0 -p ack -e 40 -c 2 -a 0 -i 40 -k RTR
r -t 1.219298579 -s 0 -d 0 -p ack -e 40 -c 2 -a 0 -i 40 -k AGT
+ -t 1.219298579 -s 0 -d -1 -p tcp -e 1540 -c 2 -a 0 -i 41 -k AGT 
- -t 1.219298579 -s 0 -d -1 -p tcp -e 1540 -c 2 -a 0 -i 41 -k AGT
h -t 1.219298579 -s 0 -d -1 -p tcp -e 1540 -c 2 -a 0 -i 41 -k AGT
+ -t 1.219298579 -s 0 -d -1 -p tcp -e 1540 -c 2 -a 0 -i 42 -k AGT 
- -t 1.219298579 -s 0 -d -1 -p tcp -e 1540 -c 2 -a 0 -i 42 -k AGT
h -t 1.219298579 -s 0 -d -1 -p tcp -e 1540 -c 2 -a 0 -i 42 -k AGT
+ -t 1.219298579 -s 0 -d 4 -p tcp -e 1540 -c 2 -a 0 -i 41 -k RTR 
- -t 1.219298579 -s 0 -d 4 -p tcp -e 1540 -c 2 -a 0 -i 41 -k RTR
h -t 1.219298579 -s 0 -d 4 -p tcp -e 1540 -c 2 -a 0 -i 41 -k RTR
+ -t 1.219298579 -s 0 -d 4 -p tcp -e 1540 -c 2 -a 0 -i 42 -k RTR 
- -t 1.219298579 -s 0 -d 4 -p tcp -e 1540 -c 2 -a 0 -i 42 -k RTR
h -t 1.219298579 -s 0 -d 4 -p tcp -e 1540 -c 2 -a 0 -i 42 -k RTR
r -t 1.233364777 -s 4 -d 4 -p tcp -e 1540 -c 2 -a 0 -i 22 -k AGT
+ -t 1.233364777 -s 4 -d -1 -p ack -e 40 -c 2 -a 0 -i 43 -k AGT 
- -t 1.233364777 -s 4 -d -1 -p ack -e 40 -c 2 -a 0 -i 43 -k AGT
h -t 1.233364777 -s 4 -d -1 -p ack -e 40 -c 2 -a 0 -i 43 -k AGT
+ -t 1.233364777 -s 4 -d 0 -p ack -e 40 -c 2 -a 0 -i 43 -k RTR 
- -t 1.233364777 -s 4 -d 0 -p ack -e 40 -c 2 -a 0 -i 43 -k RTR
h -t 1.233364777 -s 4 -d 0 -p ack -e 40 -c 2 -a 0 -i 43 -k RTR
r -t 1.235470974 -s 0 -d 0 -p ack -e 40 -c 2 -a 0 -i 43 -k AGT
+ -t 1.235470974 -s 0 -d -1 -p tcp -e 1540 -c 2 -a 0 -i 44 -k AGT 
- -t 1.235470974 -s 0 -d -1 -p tcp -e 1540 -c 2 -a 0 -i 44 -k AGT
h -t 1.235470974 -s 0 -d -1 -p tcp -e 1540 -c 2 -a 0 -i 44 -k AGT
+ -t 1.235470974 -s 0 -d -1 -p tcp -e 1540 -c 2 -a 0 -i 45 -k AGT 
- -t 1.235470974 -s 0 -d -1 -p tcp -e 1540 -c 2 -a 0 -i 45 -k AGT
h -t 1.235470974 -s 0 -d -1 -p tcp -e 1540 -c 2 -a 0 -i 45 -k AGT
+ -t 1.235470974 -s 0 -d 4 -p tcp -e 1540 -c 2 -a 0 -i 44 -k RTR 
- -t 1.235470974 -s 0 -d 4 -p tcp -e 1540 -c 2 -a 0 -i 44 -k RTR
h -t 1.235470974 -s 0 -d 4 -p tcp -e 1540 -c 2 -a 0 -i 44 -k RTR
+ -t 1.235470974 -s 0 -d 4 -p tcp -e 1540 -c 2 -a 0 -i 45 -k RTR 
- -t 1.235470974 -s 0 -d 4 -p tcp -e 1540 -c 2 -a 0 -i 45 -k RTR
h -t 1.235470974 -s 0 -d 4 -p tcp -e 1540 -c 2 -a 0 -i 45 -k RTR
r -t 1.249317171 -s 4 -d 4 -p tcp -e 1540 -c 2 -a 0 -i 23 -k AGT
+ -t 1.249317171 -s 4 -d -1 -p ack -e 40 -c 2 -a 0 -i 46 -k AGT 
- -t 1.249317171 -s 4 -d -1 -p ack -e 40 -c 2 -a 0 -i 46 -k AGT
h -t 1.249317171 -s 4 -d -1 -p ack -e 40 -c 2 -a 0 -i 46 -k AGT
+ -t 1.249317171 -s 4 -d 0 -p ack -e 40 -c 2 -a 0 -i 46 -k RTR 
- -t 1.249317171 -s 4 -d 0 -p ack -e 40 -c 2 -a 0 -i 46 -k RTR
h -t 1.249317171 -s 4 -d 0 -p ack -e 40 -c 2 -a 0 -i 46 -k RTR
r -t 1.251323367 -s 0 -d 0 -p ack -e 40 -c 2 -a 0 -i 46 -k AGT
+ -t 1.251323367 -s 0 -d -1 -p tcp -e 1540 -c 2 -a 0 -i 47 -k AGT 
- -t 1.251323367 -s 0 -d -1 -p tcp -e 1540 -c 2 -a 0 -i 47 -k AGT
h -t 1.251323367 -s 0 -d -1 -p tcp -e 1540 -c 2 -a 0 -i 47 -k AGT
+ -t 1.251323367 -s 0 -d -1 -p tcp -e 1540 -c 2 -a 0 -i 48 -k AGT 
- -t 1.251323367 -s 0 -d -1 -p tcp -e 1540 -c 2 -a 0 -i 48 -k AGT
h -t 1.251323367 -s 0 -d -1 -p tcp -e 1540 -c 2 -a 0 -i 48 -k AGT
+ -t 1.251323367 -s 0 -d 4 -p tcp -e 1540 -c 2 -a 0 -i 47 -k RTR 
- -t 1.251323367 -s 0 -d 4 -p tcp -e 1540 -c 2 -a 0 -i 47 -k RTR
h -t 1.251323367 -s 0 -d 4 -p tcp -e 1540 -c 2 -a 0 -i 47 -k RTR
+ -t 1.251323367 -s 0 -d 4 -p tcp -e 1540 -c 2 -a 0 -i 48 -k RTR 
- -t 1.251323367 -s 0 -d 4 -p tcp -e 1540 -c 2 -a 0 -i 48 -k RTR
h -t 1.251323367 -s 0 -d 4 -p tcp -e 1540 -c 2 -a 0 -i 48 -k RTR
r -t 1.265269563 -s 4 -d 4 -p tcp -e 1540 -c 2 -a 0 -i 24 -k AGT
+ -t 1.265269563 -s 4 -d -1 -p ack -e 40 -c 2 -a 0 -i 49 -k AGT 
- -t 1.265269563 -s 4 -d -1 -p ack -e 40 -c 2 -a 0 -i 49 -k AGT
h -t 1.265269563 -s 4 -d -1 -p ack -e 40 -c 2 -a 0 -i 49 -k AGT
+ -t 1.265269563 -s 4 -d 0 -p ack -e 40 -c 2 -a 0 -i 49 -k RTR 
- -t 1.265269563 -s 4 -d 0 -p ack -e 40 -c 2 -a 0 -i 49 -k RTR
h -t 1.265269563 -s 4 -d 0 -p ack -e 40 -c 2 -a 0 -i 49 -k RTR
r -t 1.279096489 -s 4 -d 4 -p tcp -e 1540 -c 2 -a 0 -i 26 -k AGT
+ -t 1.279096489 -s 4 -d -1 -p ack -e 40 -c 2 -a 0 -i 50 -k AGT 
- -t 1.279096489 -s 4 -d -1 -p ack -e 40 -c 2 -a 0 -i 50 -k AGT
h -t 1.279096489 -s 4 -d -1 -p ack -e 40 -c 2 -a 0 -i 50 -k AGT
+ -t 1.279096489 -s 4 -d 0 -p ack -e 40 -c 2 -a 0 -i 50 -k RTR 
- -t 1.279096489 -s 4 -d 0 -p ack -e 40 -c 2 -a 0 -i 50 -k RTR
h -t 1.279096489 -s 4 -d 0 -p ack -e 40 -c 2 -a 0 -i 50 -k RTR
r -t 1.293143414 -s 4 -d 4 -p tcp -e 1540 -c 2 -a 0 -i 27 -k AGT
+ -t 1.293143414 -s 4 -d -1 -p ack -e 40 -c 2 -a 0 -i 51 -k AGT 
- -t 1.293143414 -s 4 -d -1 -p ack -e 40 -c 2 -a 0 -i 51 -k AGT
h -t 1.293143414 -s 4 -d -1 -p ack -e 40 -c 2 -a 0 -i 51 -k AGT
+ -t 1.293143414 -s 4 -d 0 -p ack -e 40 -c 2 -a 0 -i 51 -k RTR 
- -t 1.293143414 -s 4 -d 0 -p ack -e 40 -c 2 -a 0 -i 51 -k RTR
h -t 1.293143414 -s 4 -d 0 -p ack -e 40 -c 2 -a 0 -i 51 -k RTR
r -t 1.295129607 -s 0 -d 0 -p ack -e 40 -c 2 -a 0 -i 49 -k AGT
+ -t 1.295129607 -s 0 -d -1 -p tcp -e 1540 -c 2 -a 0 -i 52 -k AGT 
- -t 1.295129607 -s 0 -d -1 -p tcp -e 1540 -c 2 -a 0 -i 52 -k AGT
h -t 1.295129607 -s 0 -d -1 -p tcp -e 1540 -c 2 -a 0 -i 52 -k AGT
+ -t 1.295129607 -s 0 -d -1 -p tcp -e 1540 -c 2 -a 0 -i 53 -k AGT 
- -t 1.295129607 -s 0 -d -1 -p tcp -e 1540 -c 2 -a 0 -i 53 -k AGT
h -t 1.295129607 -s 0 -d -1 -p tcp -e 1540 -c 2 -a 0 -i 53 -k AGT
+ -t 1.295129607 -s 0 -d 4 -p tcp -e 1540 -c 2 -a 0 -i 52 -k RTR 
- -t 1.295129607 -s 0 -d 4 -p tcp -e 1540 -c 2 -a 0 -i 52 -k RTR
h -t 1.295129607 -s 0 -d 4 -p tcp -e 1540 -c 2 -a 0 -i 52 -k RTR
+ -t 1.295129607 -s 0 -d 4 -p tcp -e 1540 -c 2 -a 0 -i 53 -k RTR 
- -t 1.295129607 -s 0 -d 4 -p tcp -e 1540 -c 2 -a 0 -i 53 -k RTR
h -t 1.295129607 -s 0 -d 4 -p tcp -e 1540 -c 2 -a 0 -i 53 -k RTR
r -t 1.297116530 -s 0 -d 0 -p ack -e 40 -c 2 -a 0 -i 50 -k AGT
+ -t 1.297116530 -s 0 -d -1 -p tcp -e 1540 -c 2 -a 0 -i 54 -k AGT 
- -t 1.297116530 -s 0 -d -1 -p tcp -e 1540 -c 2 -a 0 -i 54 -k AGT
h -t 1.297116530 -s 0 -d -1 -p tcp -e 1540 -c 2 -a 0 -i 54 -k AGT
+ -t 1.297116530 -s 0 -d -1 -p tcp -e 1540 -c 2 -a 0 -i 55 -k AGT 
- -t 1.297116530 -s 0 -d -1 -p tcp -e 1540 -c 2 -a 0 -i 55 -k AGT
h -t 1.297116530 -s 0 -d -1 -p tcp -e 1540 -c 2 -a 0 -i 55 -k AGT
+ -t 1.297116530 -s 0 -d 4 -p tcp -e 1540 -c 2 -a 0 -i 54 -k RTR 
- -t 1.297116530 -s 0 -d 4 -p tcp -e 1540 -c 2 -a 0 -i 54 -k RTR
h -t 1.297116530 -s 0 -d 4 -p tcp -e 1540 -c 2 -a 0 -i 54 -k RTR
+ -t 1.297116530 -s 0 -d 4 -p tcp -e 1540 -c 2 -a 0 -i 55 -k RTR 
- -t 1.297116530 -s 0 -d 4 -p tcp -e 1540 -c 2 -a 0 -i 55 -k RTR
h -t 1.297116530 -s 0 -d 4 -p tcp -e 1540 -c 2 -a 0 -i 55 -k RTR
r -t 1.310962723 -s 4 -d 4 -p tcp -e 1540 -c 2 -a 0 -i 29 -k AGT
+ -t 1.310962723 -s 4 -d -1 -p ack -e 40 -c 2 -a 0 -i 56 -k AGT 
- -t 1.310962723 -s 4 -d -1 -p ack -e 40 -c 2 -a 0 -i 56 -k AGT
h -t 1.310962723 -s 4 -d -1 -p ack -e 40 -c 2 -a 0 -i 56 -k AGT
+ -t 1.310962723 -s 4 -d 0 -p ack -e 40 -c 2 -a 0 -i 56 -k RTR 
- -t 1.310962723 -s 4 -d 0 -p ack -e 40 -c 2 -a 0 -i 56 -k RTR
h -t 1.310962723 -s 4 -d 0 -p ack -e 40 -c 2 -a 0 -i 56 -k RTR
r -t 1.324869644 -s 4 -d 4 -p tcp -e 1540 -c 2 -a 0 -i 30 -k AGT
+ -t 1.324869644 -s 4 -d -1 -p ack -e 40 -c 2 -a 0 -i 57 -k AGT 
- -t 1.324869644 -s 4 -d -1 -p ack -e 40 -c 2 -a 0 -i 57 -k AGT
h -t 1.324869644 -s 4 -d -1 -p ack -e 40 -c 2 -a 0 -i 57 -k AGT
+ -t 1.324869644 -s 4 -d 0 -p ack -e 40 -c 2 -a 0 -i 57 -k RTR 
- -t 1.324869644 -s 4 -d 0 -p ack -e 40 -c 2 -a 0 -i 57 -k RTR
h -t 1.324869644 -s 4 -d 0 -p ack -e 40 -c 2 -a 0 -i 57 -k RTR
r -t 1.326835835 -s 0 -d 0 -p ack -e 40 -c 2 -a 0 -i 51 -k AGT
+ -t 1.326835835 -s 0 -d -1 -p tcp -e 1540 -c 2 -a 0 -i 58 -k AGT 
- -t 1.326835835 -s 0 -d -1 -p tcp -e 1540 -c 2 -a 0 -i 58 -k AGT
h -t 1.326835835 -s 0 -d -1 -p tcp -e 1540 -c 2 -a 0 -i 58 -k AGT
+ -t 1.326835835 -s 0 -d -1 -p tcp -e 1540 -c 2 -a 0 -i 59 -k AGT 
- -t 1.326835835 -s 0 -d -1 -p tcp -e 1540 -c 2 -a 0 -i 59 -k AGT
h -t 1.326835835 -s 0 -d -1 -p tcp -e 1540 -c 2 -a 0 -i 59 -k AGT
+ -t 1.326835835 -s 0 -d 4 -p tcp -e 1540 -c 2 -a 0 -i 58 -k RTR 
- -t 1.326835835 -s 0 -d 4 -p tcp -e 1540 -c 2 -a 0 -i 58 -k RTR
h -t 1.326835835 -s 0 -d 4 -p tcp -e 1540 -c 2 -a 0 -i 58 -k RTR
+ -t 1.326835835 -s 0 -d 4 -p tcp -e 1540 -c 2 -a 0 -i 59 -k RTR 
- -t 1.326835835 -s 0 -d 4 -p tcp -e 1540 -c 2 -a 0 -i 59 -k RTR
h -t 1.326835835 -s 0 -d 4 -p tcp -e 1540 -c 2 -a 0 -i 59 -k RTR
r -t 1.328662755 -s 0 -d 0 -p ack -e 40 -c 2 -a 0 -i 56 -k AGT
+ -t 1.328662755 -s 0 -d -1 -p tcp -e 1540 -c 2 -a 0 -i 60 -k AGT 
- -t 1.328662755 -s 0 -d -1 -p tcp -e 1540 -c 2 -a 0 -i 60 -k AGT
h -t 1.328662755 -s 0 -d -1 -p tcp -e 1540 -c 2 -a 0 -i 60 -k AGT
+ -t 1.328662755 -s 0 -d 4 -p tcp -e 1540 -c 2 -a 0 -i 60 -k RTR 
- -t 1.328662755 -s 0 -d 4 -p tcp -e 1540 -c 2 -a 0 -i 60 -k RTR
h -t 1.328662755 -s 0 -d 4 -p tcp -e 1540 -c 2 -a 0 -i 60 -k RTR
r -t 1.342668945 -s 4 -d 4 -p tcp -e 1540 -c 2 -a 0 -i 32 -k AGT
+ -t 1.342668945 -s 4 -d -1 -p ack -e 40 -c 2 -a 0 -i 61 -k AGT 
- -t 1.342668945 -s 4 -d -1 -p ack -e 40 -c 2 -a 0 -i 61 -k AGT
h -t 1.342668945 -s 4 -d -1 -p ack -e 40 -c 2 -a 0 -i 61 -k AGT
+ -t 1.342668945 -s 4 -d 0 -p ack -e 40 -c 2 -a 0 -i 61 -k RTR 
- -t 1.342668945 -s 4 -d 0 -p ack -e 40 -c 2 -a 0 -i 61 -k RTR
h -t 1.342668945 -s 4 -d 0 -p ack -e 40 -c 2 -a 0 -i 61 -k RTR
r -t 1.344575134 -s 0 -d 0 -p ack -e 40 -c 2 -a 0 -i 57 -k AGT
+ -t 1.344575134 -s 0 -d -1 -p tcp -e 1540 -c 2 -a 0 -i 62 -k AGT 
- -t 1.344575134 -s 0 -d -1 -p tcp -e 1540 -c 2 -a 0 -i 62 -k AGT
h -t 1.344575134 -s 0 -d -1 -p tcp -e 1540 -c 2 -a 0 -i 62 -k AGT
+ -t 1.344575134 -s 0 -d 4 -p tcp -e 1540 -c 2 -a 0 -i 62 -k RTR 
- -t 1.344575134 -s 0 -d 4 -p tcp -e 1540 -c 2 -a 0 -i 62 -k RTR
h -t 1.344575134 -s 0 -d 4 -p tcp -e 1540 -c 2 -a 0 -i 62 -k RTR
r -t 1.358641323 -s 4 -d 4 -p tcp -e 1540 -c 2 -a 0 -i 33 -k AGT
+ -t 1.358641323 -s 4 -d -1 -p ack -e 40 -c 2 -a 0 -i 63 -k AGT 
- -t 1.358641323 -s 4 -d -1 -p ack -e 40 -c 2 -a 0 -i 63 -k AGT
h -t 1.358641323 -s 4 -d -1 -p ack -e 40 -c 2 -a 0 -i 63 -k AGT
+ -t 1.358641323 -s 4 -d 0 -p ack -e 40 -c 2 -a 0 -i 63 -k RTR 
- -t 1.358641323 -s 4 -d 0 -p ack -e 40 -c 2 -a 0 -i 63 -k RTR
h -t 1.358641323 -s 4 -d 0 -p ack -e 40 -c 2 -a 0 -i 63 -k RTR
r -t 1.372488240 -s 4 -d 4 -p tcp -e 1540 -c 2 -a 0 -i 35 -k AGT
+ -t 1.372488240 -s 4 -d -1 -p ack -e 40 -c 2 -a 0 -i 64 -k AGT 
- -t 1.372488240 -s 4 -d -1 -p ack -e 40 -c 2 -a 0 -i 64 -k AGT
h -t 1.372488240 -s 4 -d -1 -p ack -e 40 -c 2 -a 0 -i 64 -k AGT
+ -t 1.372488240 -s 4 -d 0 -p ack -e 40 -c 2 -a 0 -i 64 -k RTR 
- -t 1.372488240 -s 4 -d 0 -p ack -e 40 -c 2 -a 0 -i 64 -k RTR