M 1.00000 0 (808.00, 814.00, 0.00), (767.00, 426.00), 7.00
M 1.00000 1 (600.00, 959.00, 0.00), (272.00, 524.00), 9.00
M 1.00000 2 (385.00, 177.00, 0.00), (775.00, 847.00), 7.00
M 1.00000 3 (740.00, 842.00, 0.00), (683.00, 165.00), 10.00
M 1.00000 4 (959.00, 652.00, 0.00), (464.00, 955.00), 3.00
s 1.000000000 _0_ AGT  --- 0 tcp 40 [0 0 0 0] ------- [0:0 4:0 32 0] [0 0] 0 0
r 1.000000000 _0_ RTR  --- 0 tcp 40 [0 0 0 0] ------- [0:0 4:0 32 0] [0 0] 0 0
s 1.000000000 _0_ RTR  --- 0 AODV 48 [0 0 0 0] ------- [0:255 -1:255 30 0] [0x2 1 1 [4 0] [0 4]] (REQUEST)
r 1.000988245 _3_ RTR  --- 0 AODV 48 [0 ffffffff 0 800] ------- [0:255 -1:255 30 0] [0x2 1 1 [4 0] [0 4]] (REQUEST)
r 1.000988738 _4_ RTR  --- 0 AODV 48 [0 ffffffff 0 800] ------- [0:255 -1:255 30 0] [0x2 1 1 [4 0] [0 4]] (REQUEST)
s 1.000988738 _4_ RTR  --- 0 AODV 44 [0 0 0 0] ------- [4:255 0:255 30 0] [0x4 1 [4 4] 10.000000] (REPLY)
s 1.001869472 _3_ RTR  --- 0 AODV 48 [0 ffffffff 0 800] ------- [3:255 -1:255 29 0] [0x2 2 1 [4 0] [0 4]] (REQUEST)
r 1.005771905 _0_ RTR  --- 0 AODV 44 [13a 0 4 800] ------- [4:255 0:255 30 0] [0x4 1 [4 4] 10.000000] (REPLY)
s 1.005771905 _0_ RTR  --- 0 tcp 40 [0 0 0 0] ------- [0:0 4:0 30 4] [0 0] 0 0
r 1.007034378 _0_ RTR  --- 0 AODV 48 [0 ffffffff 3 800] ------- [3:255 -1:255 29 0] [0x2 2 1 [4 0] [0 4]] (REQUEST)
r 1.007034742 _1_ RTR  --- 0 AODV 48 [0 ffffffff 3 800] ------- [3:255 -1:255 29 0] [0x2 2 1 [4 0] [0 4]] (REQUEST)
r 1.008566592 _4_ AGT  --- 0 tcp 40 [13a 4 0 800] ------- [0:0 4:0 30 4] [0 0] 1 0
s 1.008566592 _4_ AGT  --- 1 ack 40 [0 0 0 0] ------- [4:0 0:0 32 0] [0 0] 0 0
r 1.008566592 _4_ RTR  --- 1 ack 40 [0 0 0 0] ------- [4:0 0:0 32 0] [0 0] 0 0
s 1.008566592 _4_ RTR  --- 1 ack 40 [0 0 0 0] ------- [4:0 0:0 30 0] [0 0] 0 0
r 1.010712806 _0_ AGT  --- 1 ack 40 [13a 0 4 800] ------- [4:0 0:0 30 0] [0 0] 1 0
s 1.010712806 _0_ AGT  --- 2 tcp 1540 [0 0 0 0] ------- [0:0 4:0 32 0] [1 0] 0 0
r 1.010712806 _0_ RTR  --- 2 tcp 1540 [0 0 0 0] ------- [0:0 4:0 32 0] [1 0] 0 0
s 1.010712806 _0_ AGT  --- 3 tcp 1540 [0 0 0 0] ------- [0:0 4:0 32 0] [2 0] 0 0
r 1.010712806 _0_ RTR  --- 3 tcp 1540 [0 0 0 0] ------- [0:0 4:0 32 0] [2 0] 0 0
s 1.010712806 _0_ RTR  --- 2 tcp 1540 [0 0 0 0] ------- [0:0 4:0 30 4] [1 0] 0 0
s 1.010712806 _0_ RTR  --- 3 tcp 1540 [0 0 0 0] ------- [0:0 4:0 30 4] [2 0] 0 0
s 1.015397977 _1_ RTR  --- 0 AODV 48 [0 ffffffff 3 800] ------- [1:255 -1:255 28 0] [0x2 3 1 [4 0] [0 4]] (REQUEST)
r 1.025079020 _4_ AGT  --- 2 tcp 1540 [13a 4 0 800] ------- [0:0 4:0 30 4] [1 0] 1 0
s 1.025079020 _4_ AGT  --- 4 ack 40 [0 0 0 0] ------- [4:0 0:0 32 0] [1 0] 0 0
r 1.025079020 _4_ RTR  --- 4 ack 40 [0 0 0 0] ------- [4:0 0:0 32 0] [1 0] 0 0
s 1.025079020 _4_ RTR  --- 4 ack 40 [0 0 0 0] ------- [4:0 0:0 30 0] [1 0] 0 0
r 1.039065970 _4_ AGT  --- 3 tcp 1540 [13a 4 0 800] ------- [0:0 4:0 30 4] [2 0] 1 0
s 1.039065970 _4_ AGT  --- 5 ack 40 [0 0 0 0] ------- [4:0 0:0 32 0] [2 0] 0 0
r 1.039065970 _4_ RTR  --- 5 ack 40 [0 0 0 0] ------- [4:0 0:0 32 0] [2 0] 0 0
s 1.039065970 _4_ RTR  --- 5 ack 40 [0 0 0 0] ------- [4:0 0:0 30 0] [2 0] 0 0
r 1.040972182 _0_ AGT  --- 4 ack 40 [13a 0 4 800] ------- [4:0 0:0 30 0] [1 0] 1 0
s 1.040972182 _0_ AGT  --- 6 tcp 1540 [0 0 0 0] ------- [0:0 4:0 32 0] [3 0] 0 0
r 1.040972182 _0_ RTR  --- 6 tcp 1540 [0 0 0 0] ------- [0:0 4:0 32 0] [3 0] 0 0
s 1.040972182 _0_ AGT  --- 7 tcp 1540 [0 0 0 0] ------- [0:0 4:0 32 0] [4 0] 0 0
r 1.040972182 _0_ RTR  --- 7 tcp 1540 [0 0 0 0] ------- [0:0 4:0 32 0] [4 0] 0 0
s 1.040972182 _0_ RTR  --- 6 tcp 1540 [0 0 0 0] ------- [0:0 4:0 30 4] [3 0] 0 0
s 1.040972182 _0_ RTR  --- 7 tcp 1540 [0 0 0 0] ------- [0:0 4:0 30 4] [4 0] 0 0
r 1.043139131 _0_ AGT  --- 5 ack 40 [13a 0 4 800] ------- [4:0 0:0 30 0] [2 0] 1 0
s 1.043139131 _0_ AGT  --- 8 tcp 1540 [0 0 0 0] ------- [0:0 4:0 32 0] [5 0] 0 0
r 1.043139131 _0_ RTR  --- 8 tcp 1540 [0 0 0 0] ------- [0:0 4:0 32 0] [5 0] 0 0
s 1.043139131 _0_ AGT  --- 9 tcp 1540 [0 0 0 0] ------- [0:0 4:0 32 0] [6 0] 0 0
r 1.043139131 _0_ RTR  --- 9 tcp 1540 [0 0 0 0] ------- [0:0 4:0 32 0] [6 0] 0 0
s 1.043139131 _0_ RTR  --- 8 tcp 1540 [0 0 0 0] ------- [0:0 4:0 30 4] [5 0] 0 0
s 1.043139131 _0_ RTR  --- 9 tcp 1540 [0 0 0 0] ------- [0:0 4:0 30 4] [6 0] 0 0
r 1.057045342 _4_ AGT  --- 6 tcp 1540 [13a 4 0 800] ------- [0:0 4:0 30 4] [3 0] 1 0
s 1.057045342 _4_ AGT  --- 10 ack 40 [0 0 0 0] ------- [4:0 0:0 32 0] [3 0] 0 0
r 1.057045342 _4_ RTR  --- 10 ack 40 [0 0 0 0] ------- [4:0 0:0 32 0] [3 0] 0 0
s 1.057045342 _4_ RTR  --- 10 ack 40 [0 0 0 0] ------- [4:0 0:0 30 0] [3 0] 0 0
r 1.071072289 _4_ AGT  --- 7 tcp 1540 [13a 4 0 800] ------- [0:0 4:0 30 4] [4 0] 1 0
s 1.071072289 _4_ AGT  --- 11 ack 40 [0 0 0 0] ------- [4:0 0:0 32 0] [4 0] 0 0
r 1.071072289 _4_ RTR  --- 11 ack 40 [0 0 0 0] ------- [4:0 0:0 32 0] [4 0] 0 0
s 1.071072289 _4_ RTR  --- 11 ack 40 [0 0 0 0] ------- [4:0 0:0 30 0] [4 0] 0 0
r 1.072958498 _0_ AGT  --- 10 ack 40 [13a 0 4 800] ------- [4:0 0:0 30 0] [3 0] 1 0
s 1.072958498 _0_ AGT  --- 12 tcp 1540 [0 0 0 0] ------- [0:0 4:0 32 0] [7 0] 0 0
r 1.072958498 _0_ RTR  --- 12 tcp 1540 [0 0 0 0] ------- [0:0 4:0 32 0] [7 0] 0 0
s 1.072958498 _0_ AGT  --- 13 tcp 1540 [0 0 0 0] ------- [0:0 4:0 32 0] [8 0] 0 0
r 1.072958498 _0_ RTR  --- 13 tcp 1540 [0 0 0 0] ------- [0:0 4:0 32 0] [8 0] 0 0
s 1.072958498 _0_ RTR  --- 12 tcp 1540 [0 0 0 0] ------- [0:0 4:0 30 4] [7 0] 0 0
s 1.072958498 _0_ RTR  --- 13 tcp 1540 [0 0 0 0] ------- [0:0 4:0 30 4] [8 0] 0 0
r 1.074805444 _0_ AGT  --- 11 ack 40 [13a 0 4 800] ------- [4:0 0:0 30 0] [4 0] 1 0
s 1.074805444 _0_ AGT  --- 14 tcp 1540 [0 0 0 0] ------- [0:0 4:0 32 0] [9 0] 0 0
r 1.074805444 _0_ RTR  --- 14 tcp 1540 [0 0 0 0] ------- [0:0 4:0 32 0] [9 0] 0 0
s 1.074805444 _0_ AGT  --- 15 tcp 1540 [0 0 0 0] ------- [0:0 4:0 32 0] [10 0] 0 0
r 1.074805444 _0_ RTR  --- 15 tcp 1540 [0 0 0 0] ------- [0:0 4:0 32 0] [10 0] 0 0
s 1.074805444 _0_ RTR  --- 14 tcp 1540 [0 0 0 0] ------- [0:0 4:0 30 4] [9 0] 0 0
s 1.074805444 _0_ RTR  --- 15 tcp 1540 [0 0 0 0] ------- [0:0 4:0 30 4] [10 0] 0 0
r 1.088791653 _4_ AGT  --- 8 tcp 1540 [13a 4 0 800] ------- [0:0 4:0 30 4] [5 0] 1 0
s 1.088791653 _4_ AGT  --- 16 ack 40 [0 0 0 0] ------- [4:0 0:0 32 0] [5 0] 0 0
r 1.088791653 _4_ RTR  --- 16 ack 40 [0 0 0 0] ------- [4:0 0:0 32 0] [5 0] 0 0
s 1.088791653 _4_ RTR  --- 16 ack 40 [0 0 0 0] ------- [4:0 0:0 30 0] [5 0] 0 0
r 1.090717861 _0_ AGT  --- 16 ack 40 [13a 0 4 800] ------- [4:0 0:0 30 0] [5 0] 1 0
s 1.090717861 _0_ AGT  --- 17 tcp 1540 [0 0 0 0] ------- [0:0 4:0 32 0] [11 0] 0 0
r 1.090717861 _0_ RTR  --- 17 tcp 1540 [0 0 0 0] ------- [0:0 4:0 32 0] [11 0] 0 0
s 1.090717861 _0_ AGT  --- 18 tcp 1540 [0 0 0 0] ------- [0:0 4:0 32 0] [12 0] 0 0
r 1.090717861 _0_ RTR  --- 18 tcp 1540 [0 0 0 0] ------- [0:0 4:0 32 0] [12 0] 0 0
s 1.090717861 _0_ RTR  --- 17 tcp 1540 [0 0 0 0] ------- [0:0 4:0 30 4] [11 0] 0 0
s 1.090717861 _0_ RTR  --- 18 tcp 1540 [0 0 0 0] ------- [0:0 4:0 30 4] [12 0] 0 0
r 1.104904068 _4_ AGT  --- 9 tcp 1540 [13a 4 0 800] ------- [0:0 4:0 30 4] [6 0] 1 0
s 1.104904068 _4_ AGT  --- 19 ack 40 [0 0 0 0] ------- [4:0 0:0 32 0] [6 0] 0 0
r 1.104904068 _4_ RTR  --- 19 ack 40 [0 0 0 0] ------- [4:0 0:0 32 0] [6 0] 0 0
s 1.104904068 _4_ RTR  --- 19 ack 40 [0 0 0 0] ------- [4:0 0:0 30 0] [6 0] 0 0
r 1.119131011 _4_ AGT  --- 12 tcp 1540 [13a 4 0 800] ------- [0:0 4:0 30 4] [7 0] 1 0
s 1.119131011 _4_ AGT  --- 20 ack 40 [0 0 0 0] ------- [4:0 0:0 32 0] [7 0] 0 0
r 1.119131011 _4_ RTR  --- 20 ack 40 [0 0 0 0] ------- [4:0 0:0 32 0] [7 0] 0 0
s 1.119131011 _4_ RTR  --- 20 ack 40 [0 0 0 0] ------- [4:0 0:0 30 0] [7 0] 0 0
r 1.121137216 _0_ AGT  --- 19 ack 40 [13a 0 4 800] ------- [4:0 0:0 30 0] [6 0] 1 0
s 1.121137216 _0_ AGT  --- 21 tcp 1540 [0 0 0 0] ------- [0:0 4:0 32 0] [13 0] 0 0
r 1.121137216 _0_ RTR  --- 21 tcp 1540 [0 0 0 0] ------- [0:0 4:0 32 0] [13 0] 0 0
s 1.121137216 _0_ AGT  --- 22 tcp 1540 [0 0 0 0] ------- [0:0 4:0 32 0] [14 0] 0 0
r 1.121137216 _0_ RTR  --- 22 tcp 1540 [0 0 0 0] ------- [0:0 4:0 32 0] [14 0] 0 0
s 1.121137216 _0_ RTR  --- 21 tcp 1540 [0 0 0 0] ------- [0:0 4:0 30 4] [13 0] 0 0
s 1.121137216 _0_ RTR  --- 22 tcp 1540 [0 0 0 0] ------- [0:0 4:0 30 4] [14 0] 0 0
r 1.123324157 _0_ AGT  --- 20 ack 40 [13a 0 4 800] ------- [4:0 0:0 30 0] [7 0] 1 0
s 1.123324157 _0_ AGT  --- 23 tcp 1540 [0 0 0 0] ------- [0:0 4:0 32 0] [15 0] 0 0
r 1.123324157 _0_ RTR  --- 23 tcp 1540 [0 0 0 0] ------- [0:0 4:0 32 0] [15 0] 0 0
s 1.123324157 _0_ AGT  --- 24 tcp 1540 [0 0 0 0] ------- [0:0 4:0 32 0] [16 0] 0 0
r 1.123324157 _0_ RTR  --- 24 tcp 1540 [0 0 0 0] ------- [0:0 4:0 32 0] [16 0] 0 0
s 1.123324157 _0_ RTR  --- 23 tcp 1540 [0 0 0 0] ------- [0:0 4:0 30 4] [15 0] 0 0
s 1.123324157 _0_ RTR  --- 24 tcp 1540 [0 0 0 0] ------- [0:0 4:0 30 4] [16 0] 0 0
r 1.137170362 _4_ AGT  --- 13 tcp 1540 [13a 4 0 800] ------- [0:0 4:0 30 4] [8 0] 1 0
s 1.137170362 _4_ AGT  --- 25 ack 40 [0 0 0 0] ------- [4:0 0:0 32 0] [8 0] 0 0
r 1.137170362 _4_ RTR  --- 25 ack 40 [0 0 0 0] ------- [4:0 0:0 32 0] [8 0] 0 0
s 1.137170362 _4_ RTR  --- 25 ack 40 [0 0 0 0] ------- [4:0 0:0 30 0] [8 0] 0 0
r 1.139036567 _0_ AGT  --- 25 ack 40 [13a 0 4 800] ------- [4:0 0:0 30 0] [8 0] 1 0
s 1.139036567 _0_ AGT  --- 26 tcp 1540 [0 0 0 0] ------- [0:0 4:0 32 0] [17 0] 0 0
r 1.139036567 _0_ RTR  --- 26 tcp 1540 [0 0 0 0] ------- [0:0 4:0 32 0] [17 0] 0 0
s 1.139036567 _0_ AGT  --- 27 tcp 1540 [0 0 0 0] ------- [0:0 4:0 32 0] [18 0] 0 0
r 1.139036567 _0_ RTR  --- 27 tcp 1540 [0 0 0 0] ------- [0:0 4:0 32 0] [18 0] 0 0
s 1.139036567 _0_ RTR  --- 26 tcp 1540 [0 0 0 0] ------- [0:0 4:0 30 4] [17 0] 0 0
s 1.139036567 _0_ RTR  --- 27 tcp 1540 [0 0 0 0] ------- [0:0 4:0 30 4] [18 0] 0 0
r 1.153142771 _4_ AGT  --- 14 tcp 1540 [13a 4 0 800] ------- [0:0 4:0 30 4] [9 0] 1 0
s 1.153142771 _4_ AGT  --- 28 ack 40 [0 0 0 0] ------- [4:0 0:0 32 0] [9 0] 0 0
r 1.153142771 _4_ RTR  --- 28 ack 40 [0 0 0 0] ------- [4:0 0:0 32 0] [9 0] 0 0
s 1.153142771 _4_ RTR  --- 28 ack 40 [0 0 0 0] ------- [4:0 0:0 30 0] [9 0] 0 0
r 1.155068974 _0_ AGT  --- 28 ack 40 [13a 0 4 800] ------- [4:0 0:0 30 0] [9 0] 1 0
s 1.155068974 _0_ AGT  --- 29 tcp 1540 [0 0 0 0] ------- [0:0 4:0 32 0] [19 0] 0 0
r 1.155068974 _0_ RTR  --- 29 tcp 1540 [0 0 0 0] ------- [0:0 4:0 32 0] [19 0] 0 0
s 1.155068974 _0_ AGT  --- 30 tcp 1540 [0 0 0 0] ------- [0:0 4:0 32 0] [20 0] 0 0
r 1.155068974 _0_ RTR  --- 30 tcp 1540 [0 0 0 0] ------- [0:0 4:0 32 0] [20 0] 0 0
s 1.155068974 _0_ RTR  --- 29 tcp 1540 [0 0 0 0] ------- [0:0 4:0 30 4] [19 0] 0 0
s 1.155068974 _0_ RTR  --- 30 tcp 1540 [0 0 0 0] ------- [0:0 4:0 30 4] [20 0] 0 0
r 1.168955177 _4_ AGT  --- 15 tcp 1540 [13a 4 0 800] ------- [0:0 4:0 30 4] [10 0] 1 0
s 1.168955177 _4_ AGT  --- 31 ack 40 [0 0 0 0] ------- [4:0 0:0 32 0] [10 0] 0 0
r 1.168955177 _4_ RTR  --- 31 ack 40 [0 0 0 0] ------- [4:0 0:0 32 0] [10 0] 0 0
s 1.168955177 _4_ RTR  --- 31 ack 40 [0 0 0 0] ------- [4:0 0:0 30 0] [10 0] 0 0
r 1.170821379 _0_ AGT  --- 31 ack 40 [13a 0 4 800] ------- [4:0 0:0 30 0] [10 0] 1 0
s 1.170821379 _0_ AGT  --- 32 tcp 1540 [0 0 0 0] ------- [0:0 4:0 32 0] [21 0] 0 0
r 1.170821379 _0_ RTR  --- 32 tcp 1540 [0 0 0 0] ------- [0:0 4:0 32 0] [21 0] 0 0
s 1.170821379 _0_ AGT  --- 33 tcp 1540 [0 0 0 0] ------- [0:0 4:0 32 0] [22 0] 0 0
r 1.170821379 _0_ RTR  --- 33 tcp 1540 [0 0 0 0] ------- [0:0 4:0 32 0] [22 0] 0 0
s 1.170821379 _0_ RTR  --- 32 tcp 1540 [0 0 0 0] ------- [0:0 4:0 30 4] [21 0] 0 0
s 1.170821379 _0_ RTR  --- 33 tcp 1540 [0 0 0 0] ------- [0:0 4:0 30 4] [22 0] 0 0
r 1.184907580 _4_ AGT  --- 17 tcp 1540 [13a 4 0 800] ------- [0:0 4:0 30 4] [11 0] 1 0
s 1.184907580 _4_ AGT  --- 34 ack 40 [0 0 0 0] ------- [4:0 0:0 32 0] [11 0] 0 0
r 1.184907580 _4_ RTR  --- 34 ack 40 [0 0 0 0] ------- [4:0 0:0 32 0] [11 0] 0 0
s 1.184907580 _4_ RTR  --- 34 ack 40 [0 0 0 0] ------- [4:0 0:0 30 0] [11 0] 0 0
r 1.186833781 _0_ AGT  --- 34 ack 40 [13a 0 4 800] ------- [4:0 0:0 30 0] [11 0] 1 0
s 1.186833781 _0_ AGT  --- 35 tcp 1540 [0 0 0 0] ------- [0:0 4:0 32 0] [23 0] 0 0
r 1.186833781 _0_ RTR  --- 35 tcp 1540 [0 0 0 0] ------- [0:0 4:0 32 0] [23 0] 0 0
s 1.186833781 _0_ AGT  --- 36 tcp 1540 [0 0 0 0] ------- [0:0 4:0 32 0] [24 0] 0 0
r 1.186833781 _0_ RTR  --- 36 tcp 1540 [0 0 0 0] ------- [0:0 4:0 32 0] [24 0] 0 0
s 1.186833781 _0_ RTR  --- 35 tcp 1540 [0 0 0 0] ------- [0:0 4:0 30 4] [23 0] 0 0
s 1.186833781 _0_ RTR  --- 36 tcp 1540 [0 0 0 0] ------- [0:0 4:0 30 4] [24 0] 0 0
r 1.201099982 _4_ AGT  --- 18 tcp 1540 [13a 4 0 800] ------- [0:0 4:0 30 4] [12 0] 1 0
s 1.201099982 _4_ AGT  --- 37 ack 40 [0 0 0 0] ------- [4:0 0:0 32 0] [12 0] 0 0
r 1.201099982 _4_ RTR  --- 37 ack 40 [0 0 0 0] ------- [4:0 0:0 32 0] [12 0] 0 0
s 1.201099982 _4_ RTR  --- 37 ack 40 [0 0 0 0] ------- [4:0 0:0 30 0] [12 0] 0 0
r 1.203126181 _0_ AGT  --- 37 ack 40 [13a 0 4 800] ------- [4:0 0:0 30 0] [12 0] 1 0
s 1.203126181 _0_ AGT  --- 38 tcp 1540 [0 0 0 0] ------- [0:0 4:0 32 0] [25 0] 0 0
r 1.203126181 _0_ RTR  --- 38 tcp 1540 [0 0 0 0] ------- [0:0 4:0 32 0] [25 0] 0 0
s 1.203126181 _0_ AGT  --- 39 tcp 1540 [0 0 0 0] ------- [0:0 4:0 32 0] [26 0] 0 0
r 1.203126181 _0_ RTR  --- 39 tcp 1540 [0 0 0 0] ------- [0:0 4:0 32 0] [26 0] 0 0
s 1.203126181 _0_ RTR  --- 38 tcp 1540 [0 0 0 0] ------- [0:0 4:0 30 4] [25 0] 0 0
s 1.203126181 _0_ RTR  --- 39 tcp 1540 [0 0 0 0] ------- [0:0 4:0 30 4] [26 0] 0 0
r 1.217352381 _4_ AGT  --- 21 tcp 1540 [13a 4 0 800] ------- [0:0 4:0 30 4] [13 0] 1 0
s 1.217352381 _4_ AGT  --- 40 ack 40 [0 0 0 0] ------- [4:0 0:0 32 0] [13 0] 0 0
r 1.217352381 _4_ RTR  --- 40 ack 40 [0 0 0 0] ------- [4:0 0:0 32 0] [13 0] 0 0
s 1.217352381 _4_ RTR  --- 40 ack 40 [0 0 0 0] ------- [4:0 0:0 30 0] [13 0] 0 0
r 1.219298579 _0_ AGT  --- 40 ack 40 [13a 0 4 800] ------- [4:0 0:0 30 0] [13 0] 1 0
s 1.219298579 _0_ AGT  --- 41 tcp 1540 [0 0 0 0] ------- [0:0 4:0 32 0] [27 0] 0 0
r 1.219298579 _0_ RTR  --- 41 tcp 1540 [0 0 0 0] ------- [0:0 4:0 32 0] [27 0] 0 0
s 1.219298579 _0_ AGT  --- 42 tcp 1540 [0 0 0 0] ------- [0:0 4:0 32 0] [28 0] 0 0
r 1.219298579 _0_ RTR  --- 42 tcp 1540 [0 0 0 0] ------- [0:0 4:0 32 0] [28 0] 0 0
s 1.219298579 _0_ RTR  --- 41 tcp 1540 [0 0 0 0] ------- [0:0 4:0 30 4] [27 0] 0 0
s 1.219298579 _0_ RTR  --- 42 tcp 1540 [0 0 0 0] ------- [0:0 4:0 30 4] [28 0] 0 0
r 1.233364777 _4_ AGT  --- 22 tcp 1540 [13a 4 0 800] ------- [0:0 4:0 30 4] [14 0] 1 0
s 1.233364777 _4_ AGT  --- 43 ack 40 [0 0 0 0] ------- [4:0 0:0 32 0] [14 0] 0 0
r 1.233364777 _4_ RTR  --- 43 ack 40 [0 0 0 0] ------- [4:0 0:0 32 0] [14 0] 0 0
s 1.233364777 _4_ RTR  --- 43 ack 40 [0 0 0 0] ------- [4:0 0:0 30 0] [14 0] 0 0
r 1.235470974 _0_ AGT  --- 43 ack 40 [13a 0 4 800] ------- [4:0 0:0 30 0] [14 0] 1 0
s 1.235470974 _0_ AGT  --- 44 tcp 1540 [0 0 0 0] ------- [0:0 4:0 32 0] [29 0] 0 0
r 1.235470974 _0_ RTR  --- 44 tcp 1540 [0 0 0 0] ------- [0:0 4:0 32 0] [29 0] 0 0
s 1.235470974 _0_ AGT  --- 45 tcp 1540 [0 0 0 0] ------- [0:0 4:0 32 0] [30 0] 0 0
r 1.235470974 _0_ RTR  --- 45 tcp 1540 [0 0 0 0] ------- [0:0 4:0 32 0] [30 0] 0 0
s 1.235470974 _0_ RTR  --- 44 tcp 1540 [0 0 0 0] ------- [0:0 4:0 30 4] [29 0] 0 0
s 1.235470974 _0_ RTR  --- 45 tcp 1540 [0 0 0 0] ------- [0:0 4:0 30 4] [30 0] 0 0
r 1.249317171 _4_ AGT  --- 23 tcp 1540 [13a 4 0 800] ------- [0:0 4:0 30 4] [15 0] 1 0
s 1.249317171 _4_ AGT  --- 46 ack 40 [0 0 0 0] ------- [4:0 0:0 32 0] [15 0] 0 0
r 1.249317171 _4_ RTR  --- 46 ack 40 [0 0 0 0] ------- [4:0 0:0 32 0] [15 0] 0 0
s 1.249317171 _4_ RTR  --- 46 ack 40 [0 0 0 0] ------- [4:0 0:0 30 0] [15 0] 0 0
r 1.251323367 _0_ AGT  --- 46 ack 40 [13a 0 4 800] ------- [4:0 0:0 30 0] [15 0] 1 0
s 1.251323367 _0_ AGT  --- 47 tcp 1540 [0 0 0 0] ------- [0:0 4:0 32 0] [31 0] 0 0
r 1.251323367 _0_ RTR  --- 47 tcp 1540 [0 0 0 0] ------- [0:0 4:0 32 0] [31 0] 0 0
s 1.251323367 _0_ AGT  --- 48 tcp 1540 [0 0 0 0] ------- [0:0 4:0 32 0] [32 0] 0 0
r 1.251323367 _0_ RTR  --- 48 tcp 1540 [0 0 0 0] ------- [0:0 4:0 32 0] [32 0] 0 0
s 1.251323367 _0_ RTR  --- 47 tcp 1540 [0 0 0 0] ------- [0:0 4:0 30 4] [31 0] 0 0
s 1.251323367 _0_ RTR  --- 48 tcp 1540 [0 0 0 0] ------- [0:0 4:0 30 4] [32 0] 0 0
r 1.265269563 _4_ AGT  --- 24 tcp 1540 [13a 4 0 800] ------- [0:0 4:0 30 4] [16 0] 1 0
s 1.265269563 _4_ AGT  --- 49 ack 40 [0 0 0 0] ------- [4:0 0:0 32 0] [16 0] 0 0
r 1.265269563 _4_ RTR  --- 49 ack 40 [0 0 0 0] ------- [4:0 0:0 32 0] [16 0] 0 0
s 1.265269563 _4_ RTR  --- 49 ack 40 [0 0 0 0] ------- [4:0 0:0 30 0] [16 0] 0 0
r 1.279096489 _4_ AGT  --- 26 tcp 1540 [13a 4 0 800] ------- [0:0 4:0 30 4] [17 0] 1 0
s 1.279096489 _4_ AGT  --- 50 ack 40 [0 0 0 0] ------- [4:0 0:0 32 0] [17 0] 0 0
r 1.279096489 _4_ RTR  --- 50 ack 40 [0 0 0 0] ------- [4:0 0:0 32 0] [17 0] 0 0
s 1.279096489 _4_ RTR  --- 50 ack 40 [0 0 0 0] ------- [4:0 0:0 30 0] [17 0] 0 0
r 1.293143414 _4_ AGT  --- 27 tcp 1540 [13a 4 0 800] ------- [0:0 4:0 30 4] [18 0] 1 0
s 1.293143414 _4_ AGT  --- 51 ack 40 [0 0 0 0] ------- [4:0 0:0 32 0] [18 0] 0 0
r 1.293143414 _4_ RTR  --- 51 ack 40 [0 0 0 0] ------- [4:0 0:0 32 0] [18 0] 0 0
s 1.293143414 _4_ RTR  --- 51 ack 40 [0 0 0 0] ------- [4:0 0:0 30 0] [18 0] 0 0
r 1.295129607 _0_ AGT  --- 49 ack 40 [13a 0 4 800] ------- [4:0 0:0 30 0] [16 0] 1 0
s 1.295129607 _0_ AGT  --- 52 tcp 1540 [0 0 0 0] ------- [0:0 4:0 32 0] [33 0] 0 0
r 1.295129607 _0_ RTR  --- 52 tcp 1540 [0 0 0 0] ------- [0:0 4:0 32 0] [33 0] 0 0
s 1.295129607 _0_ AGT  --- 53 tcp 1540 [0 0 0 0] ------- [0:0 4:0 32 0] [34 0] 0 0
r 1.295129607 _0_ RTR  --- 53 tcp 1540 [0 0 0 0] ------- [0:0 4:0 32 0] [34 0] 0 0
s 1.295129607 _0_ RTR  --- 52 tcp 1540 [0 0 0 0] ------- [0:0 4:0 30 4] [33 0] 0 0
s 1.295129607 _0_ RTR  --- 53 tcp 1540 [0 0 0 0] ------- [0:0 4:0 30 4] [34 0] 0 0
r 1.297116530 _0_ AGT  --- 50 ack 40 [13a 0 4 800] ------- [4:0 0:0 30 0] [17 0] 1 0
s 1.297116530 _0_ AGT  --- 54 tcp 1540 [0 0 0 0] ------- [0:0 4:0 32 0] [35 0] 0 0
r 1.297116530 _0_ RTR  --- 54 tcp 1540 [0 0 0 0] ------- [0:0 4:0 32 0] [35 0] 0 0
s 1.297116530 _0_ AGT  --- 55 tcp 1540 [0 0 0 0] ------- [0:0 4:0 32 0] [36 0] 0 0
r 1.297116530 _0_ RTR  --- 55 tcp 1540 [0 0 0 0] ------- [0:0 4:0 32 0] [36 0] 0 0
s 1.297116530 _0_ RTR  --- 54 tcp 1540 [0 0 0 0] ------- [0:0 4:0 30 4] [35 0] 0 0
s 1.297116530 _0_ RTR  --- 55 tcp 1540 [0 0 0 0] ------- [0:0 4:0 30 4] [36 0] 0 0
r 1.310962723 _4_ AGT  --- 29 tcp 1540 [13a 4 0 800] ------- [0:0 4:0 30 4] [19 0] 1 0
s 1.310962723 _4_ AGT  --- 56 ack 40 [0 0 0 0] ------- [4:0 0:0 32 0] [19 0] 0 0
r 1.310962723 _4_ RTR  --- 56 ack 40 [0 0 0 0] ------- [4:0 0:0 32 0] [19 0] 0 0
s 1.310962723 _4_ RTR  --- 56 ack 40 [0 0 0 0] ------- [4:0 0:0 30 0] [19 0] 0 0
r 1.324869644 _4_ AGT  --- 30 tcp 1540 [13a 4 0 800] ------- [0:0 4:0 30 4] [20 0] 1 0
s 1.324869644 _4_ AGT  --- 57 ack 40 [0 0 0 0] ------- [4:0 0:0 32 0] [20 0] 0 0
r 1.324869644 _4_ RTR  --- 57 ack 40 [0 0 0 0] ------- [4:0 0:0 32 0] [20 0] 0 0
s 1.324869644 _4_ RTR  --- 57 ack 40 [0 0 0 0] ------- [4:0 0:0 30 0] [20 0] 0 0
r 1.326835835 _0_ AGT  --- 51 ack 40 [13a 0 4 800] ------- [4:0 0:0 30 0] [18 0] 1 0
s 1.326835835 _0_ AGT  --- 58 tcp 1540 [0 0 0 0] ------- [0:0 4:0 32 0] [37 0] 0 0
r 1.326835835 _0_ RTR  --- 58 tcp 1540 [0 0 0 0] ------- [0:0 4:0 32 0] [37 0] 0 0
s 1.326835835 _0_ AGT  --- 59 tcp 1540 [0 0 0 0] ------- [0:0 4:0 32 0] [38 0] 0 0
r 1.326835835 _0_ RTR  --- 59 tcp 1540 [0 0 0 0] ------- [0:0 4:0 32 0] [38 0] 0 0
s 1.326835835 _0_ RTR  --- 58 tcp 1540 [0 0 0 0] ------- [0:0 4:0 30 4] [37 0] 0 0
s 1.326835835 _0_ RTR  --- 59 tcp 1540 [0 0 0 0] ------- [0:0 4:0 30 4] [38 0] 0 0
r 1.328662755 _0_ AGT  --- 56 ack 40 [13a 0 4 800] ------- [4:0 0:0 30 0] [19 0] 1 0
s 1.328662755 _0_ AGT  --- 60 tcp 1540 [0 0 0 0] ------- [0:0 4:0 32 0] [39 0] 0 0
r 1.328662755 _0_ RTR  --- 60 tcp 1540 [0 0 0 0] ------- [0:0 4:0 32 0] [39 0] 0 0
s 1.328662755 _0_ RTR  --- 60 tcp 1540 [0 0 0 0] ------- [0:0 4:0 30 4] [39 0] 0 0
r 1.342668945 _4_ AGT  --- 32 tcp 1540 [13a 4 0 800] ------- [0:0 4:0 30 4] [21 0] 1 0
s 1.342668945 _4_ AGT  --- 61 ack 40 [0 0 0 0] ------- [4:0 0:0 32 0] [21 0] 0 0
r 1.342668945 _4_ RTR  --- 61 ack 40 [0 0 0 0] ------- [4:0 0:0 32 0] [21 0] 0 0
s 1.342668945 _4_ RTR  --- 61 ack 40 [0 0 0 0] ------- [4:0 0:0 30 0] [21 0] 0 0
r 1.344575134 _0_ AGT  --- 57 ack 40 [13a 0 4 800] ------- [4:0 0:0 30 0] [20 0] 1 0
s 1.344575134 _0_ AGT  --- 62 tcp 1540 [0 0 0 0] ------- [0:0 4:0 32 0] [40 0] 0 0
r 1.344575134 _0_ RTR  --- 62 tcp 1540 [0 0 0 0] ------- [0:0 4:0 32 0] [40 0] 0 0
s 1.344575134 _0_ RTR  --- 62 tcp 1540 [0 0 0 0] ------- [0:0 4:0 30 4] [40 0] 0 0
r 1.358641323 _4_ AGT  --- 33 tcp 1540 [13a 4 0 800] ------- [0:0 4:0 30 4] [22 0] 1 0
s 1.358641323 _4_ AGT  --- 63 ack 40 [0 0 0 0] ------- [4:0 0:0 32 0] [22 0] 0 0
r 1.358641323 _4_ RTR  --- 63 ack 40 [0 0 0 0] ------- [4:0 0:0 32 0] [22 0] 0 0
s 1.358641323 _4_ RTR  --- 63 ack 40 [0 0 0 0] ------- [4:0 0:0 30 0] [22 0] 0 0
r 1.372488240 _4_ AGT  --- 35 tcp 1540 [13a 4 0 800] ------- [0:0 4:0 30 4] [23 0] 1 0
s 1.372488240 _4_ AGT  --- 64 ack 40 [0 0 0 0] ------- [4:0 0:0 32 0] [23 0] 0 0
r 1.372488240 _4_ RTR  --- 64 ack 40 [0 0 0 0] ------- [4:0 0:0 32 0] [23 0] 0 0
s 1.372488240 _4_ RTR  --- 64 ack 40 [0 0 0 0] ------- [4:0 0:0 30 0] [23 0] 0 0
r 1.374354427 _0_ AGT  --- 61 ack 40 [13a 0 4 800] ------- [4:0 0:0 30 0] [21 0] 1 0
s 1.374354427 _0_ AGT  --- 65 tcp 1540 [0 0 0 0] ------- [0:0 4:0 32 0] [41 0] 0 0
r 1.374354427 _0_ RTR  --- 65 tcp 1540 [0 0 0 0] ------- [0:0 4:0 32 0] [41 0] 0 0
s 1.374354427 _0_ RTR  --- 65 tcp 1540 [0 0 0 0] ------- [0:0 4:0 30 4] [41 0] 0 0
r 1.376421342 _0_ AGT  --- 63 ack 40 [13a 0 4 800] ------- [4:0 0:0 30 0] [22 0] 1 0
s 1.376421342 _0_ AGT  --- 66 tcp 1540 [0 0 0 0] ------- [0:0 4:0 32 0] [42 0] 0 0
r 1.376421342 _0_ RTR  --- 66 tcp 1540 [0 0 0 0] ------- [0:0 4:0 32 0] [42 0] 0 0
s 1.376421342 _0_ RTR  --- 66 tcp 1540 [0 0 0 0] ------- [0:0 4:0 30 4] [42 0] 0 0
r 1.378368257 _0_ AGT  --- 64 ack 40 [13a 0 4 800] ------- [4:0 0:0 30 0] [23 0] 1 0
s 1.378368257 _0_ AGT  --- 67 tcp 1540 [0 0 0 0] ------- [0:0 4:0 32 0] [43 0] 0 0
r 1.378368257 _0_ RTR  --- 67 tcp 1540 [0 0 0 0] ------- [0:0 4:0 32 0] [43 0] 0 0
s 1.378368257 _0_ RTR  --- 67 tcp 1540 [0 0 0 0] ------- [0:0 4:0 30 4] [43 0] 0 0
r 1.392294444 _4_ AGT  --- 36 tcp 1540 [13a 4 0 800] ------- [0:0 4:0 30 4] [24 0] 1 0
s 1.392294444 _4_ AGT  --- 68 ack 40 [0 0 0 0] ------- [4:0 0:0 32 0] [24 0] 0 0
r 1.392294444 _4_ RTR  --- 68 ack 40 [0 0 0 0] ------- [4:0 0:0 32 0] [24 0] 0 0
s 1.392294444 _4_ RTR  --- 68 ack 40 [0 0 0 0] ------- [4:0 0:0 30 0] [24 0] 0 0
r 1.406161357 _4_ AGT  --- 38 tcp 1540 [13a 4 0 800] ------- [0:0 4:0 30 4] [25 0] 1 0
s 1.406161357 _4_ AGT  --- 69 ack 40 [0 0 0 0] ------- [4:0 0:0 32 0] [25 0] 0 0
r 1.406161357 _4_ RTR  --- 69 ack 40 [0 0 0 0] ------- [4:0 0:0 32 0] [25 0] 0 0
s 1.406161357 _4_ RTR  --- 69 ack 40 [0 0 0 0] ------- [4:0 0:0 30 0] [25 0] 0 0
r 1.408167542 _0_ AGT  --- 68 ack 40 [13a 0 4 800] ------- [4:0 0:0 30 0] [24 0] 1 0
s 1.408167542 _0_ AGT  --- 70 tcp 1540 [0 0 0 0] ------- [0:0 4:0 32 0] [44 0] 0 0
r 1.408167542 _0_ RTR  --- 70 tcp 1540 [0 0 0 0] ------- [0:0 4:0 32 0] [44 0] 0 0
s 1.408167542 _0_ RTR  --- 70 tcp 1540 [0 0 0 0] ------- [0:0 4:0 30 4] [44 0] 0 0
r 1.410114454 _0_ AGT  --- 69 ack 40 [13a 0 4 800] ------- [4:0 0:0 30 0] [25 0] 1 0
s 1.410114454 _0_ AGT  --- 71 tcp 1540 [0 0 0 0] ------- [0:0 4:0 32 0] [45 0] 0 0
r 1.410114454 _0_ RTR  --- 71 tcp 1540 [0 0 0 0] ------- [0:0 4:0 32 0] [45 0] 0 0
s 1.410114454 _0_ RTR  --- 71 tcp 1540 [0 0 0 0] ------- [0:0 4:0 30 4] [45 0] 0 0
r 1.424120638 _4_ AGT  --- 39 tcp 1540 [13a 4 0 800] ------- [0:0 4:0 30 4] [26 0] 1 0
s 1.424120638 _4_ AGT  --- 72 ack 40 [0 0 0 0] ------- [4:0 0:0 32 0] [26 0] 0 0
r 1.424120638 _4_ RTR  --- 72 ack 40 [0 0 0 0] ------- [4:0 0:0 32 0] [26 0] 0 0
s 1.424120638 _4_ RTR  --- 72 ack 40 [0 0 0 0] ------- [4:0 0:0 30 0] [26 0] 0 0
r 1.425986821 _0_ AGT  --- 72 ack 40 [13a 0 4 800] ------- [4:0 0:0 30 0] [26 0] 1 0
s 1.425986821 _0_ AGT  --- 73 tcp 1540 [0 0 0 0] ------- [0:0 4:0 32 0] [46 0] 0 0
r 1.425986821 _0_ RTR  --- 73 tcp 1540 [0 0 0 0] ------- [0:0 4:0 32 0] [46 0] 0 0
s 1.425986821 _0_ RTR  --- 73 tcp 1540 [0 0 0 0] ------- [0:0 4:0 30 4] [46 0] 0 0
r 1.439893003 _4_ AGT  --- 41 tcp 1540 [13a 4 0 800] ------- [0:0 4:0 30 4] [27 0] 1 0
s 1.439893003 _4_ AGT  --- 74 ack 40 [0 0 0 0] ------- [4:0 0:0 32 0] [27 0] 0 0
r 1.439893003 _4_ RTR  --- 74 ack 40 [0 0 0 0] ------- [4:0 0:0 32 0] [27 0] 0 0
s 1.439893003 _4_ RTR  --- 74 ack 40 [0 0 0 0] ------- [4:0 0:0 30 0] [27 0] 0 0
r 1.441739185 _0_ AGT  --- 74 ack 40 [13a 0 4 800] ------- [4:0 0:0 30 0] [27 0] 1 0
s 1.441739185 _0_ AGT  --- 75 tcp 1540 [0 0 0 0] ------- [0:0 4:0 32 0] [47 0] 0 0
r 1.441739185 _0_ RTR  --- 75 tcp 1540 [0 0 0 0] ------- [0:0 4:0 32 0] [47 0] 0 0
s 1.441739185 _0_ RTR  --- 75 tcp 1540 [0 0 0 0] ------- [0:0 4:0 30 4] [47 0] 0 0
r 1.455825367 _4_ AGT  --- 42 tcp 1540 [13a 4 0 800] ------- [0:0 4:0 30 4] [28 0] 1 0
s 1.455825367 _4_ AGT  --- 76 ack 40 [0 0 0 0] ------- [4:0 0:0 32 0] [28 0] 0 0
r 1.455825367 _4_ RTR  --- 76 ack 40 [0 0 0 0] ------- [4:0 0:0 32 0] [28 0] 0 0
s 1.455825367 _4_ RTR  --- 76 ack 40 [0 0 0 0] ------- [4:0 0:0 30 0] [28 0] 0 0
r 1.457711547 _0_ AGT  --- 76 ack 40 [13a 0 4 800] ------- [4:0 0:0 30 0] [28 0] 1 0
s 1.457711547 _0_ AGT  --- 77 tcp 1540 [0 0 0 0] ------- [0:0 4:0 32 0] [48 0] 0 0
r 1.457711547 _0_ RTR  --- 77 tcp 1540 [0 0 0 0] ------- [0:0 4:0 32 0] [48 0] 0 0
s 1.457711547 _0_ RTR  --- 77 tcp 1540 [0 0 0 0] ------- [0:0 4:0 30 4] [48 0] 0 0
r 1.471837728 _4_ AGT  --- 44 tcp 1540 [13a 4 0 800] ------- [0:0 4:0 30 4] [29 0] 1 0
s 1.471837728 _4_ AGT  --- 78 ack 40 [0 0 0 0] ------- [4:0 0:0 32 0] [29 0] 0 0
r 1.471837728 _4_ RTR  --- 78 ack 40 [0 0 0 0] ------- [4:0 0:0 32 0] [29 0] 0 0
s 1.471837728 _4_ RTR  --- 78 ack 40 [0 0 0 0] ------- [4:0 0:0 30 0] [29 0] 0 0
r 1.485784633 _4_ AGT  --- 45 tcp 1540 [13a 4 0 800] ------- [0:0 4:0 30 4] [30 0] 1 0
s 1.485784633 _4_ AGT  --- 79 ack 40 [0 0 0 0] ------- [4:0 0:0 32 0] [30 0] 0 0
r 1.485784633 _4_ RTR  --- 79 ack 40 [0 0 0 0] ------- [4:0 0:0 32 0] [30 0] 0 0
s 1.485784633 _4_ RTR  --- 79 ack 40 [0 0 0 0] ------- [4:0 0:0 30 0] [30 0] 0 0
r 1.499671538 _4_ AGT  --- 47 tcp 1540 [13a 4 0 800] ------- [0:0 4:0 30 4] [31 0] 1 0
s 1.499671538 _4_ AGT  --- 80 ack 40 [0 0 0 0] ------- [4:0 0:0 32 0] [31 0] 0 0
r 1.499671538 _4_ RTR  --- 80 ack 40 [0 0 0 0] ------- [4:0 0:0 32 0] [31 0] 0 0
s 1.499671538 _4_ RTR  --- 80 ack 40 [0 0 0 0] ------- [4:0 0:0 30 0] [31 0] 0 0
r 1.501637715 _0_ AGT  --- 78 ack 40 [13a 0 4 800] ------- [4:0 0:0 30 0] [29 0] 1 0
s 1.501637715 _0_ AGT  --- 81 tcp 1540 [0 0 0 0] ------- [0:0 4:0 32 0] [49 0] 0 0
r 1.501637715 _0_ RTR  --- 81 tcp 1540 [0 0 0 0] ------- [0:0 4:0 32 0] [49 0] 0 0
s 1.501637715 _0_ RTR  --- 81 tcp 1540 [0 0 0 0] ------- [0:0 4:0 30 4] [49 0] 0 0
r 1.503584618 _0_ AGT  --- 79 ack 40 [13a 0 4 800] ------- [4:0 0:0 30 0] [30 0] 1 0
s 1.503584618 _0_ AGT  --- 82 tcp 1540 [0 0 0 0] ------- [0:0 4:0 32 0] [50 0] 0 0
r 1.503584618 _0_ RTR  --- 82 tcp 1540 [0 0 0 0] ------- [0:0 4:0 32 0] [50 0] 0 0
s 1.503584618 _0_ RTR  --- 82 tcp 1540 [0 0 0 0] ------- [0:0 4:0 30 4] [50 0] 0 0
r 1.517750795 _4_ AGT  --- 48 tcp 1540 [13a 4 0 800] ------- [0:0 4:0 30 4] [32 0] 1 0
s 1.517750795 _4_ AGT  --- 83 ack 40 [0 0 0 0] ------- [4:0 0:0 32 0] [32 0] 0 0
r 1.517750795 _4_ RTR  --- 83 ack 40 [0 0 0 0] ------- [4:0 0:0 32 0] [32 0] 0 0
s 1.517750795 _4_ RTR  --- 83 ack 40 [0 0 0 0] ------- [4:0 0:0 30 0] [32 0] 0 0
r 1.519856971 _0_ AGT  --- 80 ack 40 [13a 0 4 800] ------- [4:0 0:0 30 0] [31 0] 1 0
s 1.519856971 _0_ AGT  --- 84 tcp 1540 [0 0 0 0] ------- [0:0 4:0 32 0] [51 0] 0 0
r 1.519856971 _0_ RTR  --- 84 tcp 1540 [0 0 0 0] ------- [0:0 4:0 32 0] [51 0] 0 0
s 1.519856971 _0_ RTR  --- 84 tcp 1540 [0 0 0 0] ------- [0:0 4:0 30 4] [51 0] 0 0
r 1.533863147 _4_ AGT  --- 52 tcp 1540 [13a 4 0 800] ------- [0:0 4:0 30 4] [33 0] 1 0
s 1.533863147 _4_ AGT  --- 85 ack 40 [0 0 0 0] ------- [4:0 0:0 32 0] [33 0] 0 0
r 1.533863147 _4_ RTR  --- 85 ack 40 [0 0 0 0] ------- [4:0 0:0 32 0] [33 0] 0 0
s 1.533863147 _4_ RTR  --- 85 ack 40 [0 0 0 0] ------- [4:0 0:0 30 0] [33 0] 0 0
r 1.547990046 _4_ AGT  --- 53 tcp 1540 [13a 4 0 800] ------- [0:0 4:0 30 4] [34 0] 1 0
s 1.547990046 _4_ AGT  --- 86 ack 40 [0 0 0 0] ------- [4:0 0:0 32 0] [34 0] 0 0
r 1.547990046 _4_ RTR  --- 86 ack 40 [0 0 0 0] ------- [4:0 0:0 32 0] [34 0] 0 0
s 1.547990046 _4_ RTR  --- 86 ack 40 [0 0 0 0] ------- [4:0 0:0 30 0] [34 0] 0 0
r 1.549896220 _0_ AGT  --- 83 ack 40 [13a 0 4 800] ------- [4:0 0:0 30 0] [32 0] 1 0
s 1.549896220 _0_ AGT  --- 87 tcp 1540 [0 0 0 0] ------- [0:0 4:0 32 0] [52 0] 0 0
r 1.549896220 _0_ RTR  --- 87 tcp 1540 [0 0 0 0] ------- [0:0 4:0 32 0] [52 0] 0 0
s 1.549896220 _0_ RTR  --- 87 tcp 1540 [0 0 0 0] ------- [0:0 4:0 30 4] [52 0] 0 0
r 1.563962394 _4_ AGT  --- 54 tcp 1540 [13a 4 0 800] ------- [0:0 4:0 30 4] [35 0] 1 0
s 1.563962394 _4_ AGT  --- 88 ack 40 [0 0 0 0] ------- [4:0 0:0 32 0] [35 0] 0 0
r 1.563962394 _4_ RTR  --- 88 ack 40 [0 0 0 0] ------- [4:0 0:0 32 0] [35 0] 0 0
s 1.563962394 _4_ RTR  --- 88 ack 40 [0 0 0 0] ------- [4:0 0:0 30 0] [35 0] 0 0
r 1.565868566 _0_ AGT  --- 85 ack 40 [13a 0 4 800] ------- [4:0 0:0 30 0] [33 0] 1 0
s 1.565868566 _0_ AGT  --- 89 tcp 1540 [0 0 0 0] ------- [0:0 4:0 32 0] [53 0] 0 0
r 1.565868566 _0_ RTR  --- 89 tcp 1540 [0 0 0 0] ------- [0:0 4:0 32 0] [53 0] 0 0
s 1.565868566 _0_ RTR  --- 89 tcp 1540 [0 0 0 0] ------- [0:0 4:0 30 4] [53 0] 0 0
r 1.567735463 _0_ AGT  --- 86 ack 40 [13a 0 4 800] ------- [4:0 0:0 30 0] [34 0] 1 0
s 1.567735463 _0_ AGT  --- 90 tcp 1540 [0 0 0 0] ------- [0:0 4:0 32 0] [54 0] 0 0
r 1.567735463 _0_ RTR  --- 90 tcp 1540 [0 0 0 0] ------- [0:0 4:0 32 0] [54 0] 0 0
s 1.567735463 _0_ RTR  --- 90 tcp 1540 [0 0 0 0] ------- [0:0 4:0 30 4] [54 0] 0 0
r 1.581801635 _4_ AGT  --- 55 tcp 1540 [13a 4 0 800] ------- [0:0 4:0 30 4] [36 0] 1 0
s 1.581801635 _4_ AGT  --- 91 ack 40 [0 0 0 0] ------- [4:0 0:0 32 0] [36 0] 0 0
r 1.581801635 _4_ RTR  --- 91 ack 40 [0 0 0 0] ------- [4:0 0:0 32 0] [36 0] 0 0