n -t * -s 0  -x 369 -y 520 -Z 0 -z 25  -v circle -c black
n -t * -s 1  -x 885 -y 526 -Z 0 -z 25  -v circle -c black
n -t * -s 2  -x 729 -y 340 -Z 0 -z 25  -v circle -c black
n -t * -s 3  -x 1008 -y 280 -Z 0 -z 25  -v circle -c black
n -t * -s 4  -x 798 -y 39 -Z 0 -z 25  -v circle -c black
n -t * -s 5  -x 602 -y 383 -Z 0 -z 25  -v circle -c black
n -t * -s 6  -x 402 -y 214 -Z 0 -z 25  -v circle -c black
n -t * -s 7  -x 857 -y 514 -Z 0 -z 25  -v circle -c black
n -t * -s 8  -x 389 -y 297 -Z 0 -z 25  -v circle -c black
n -t * -s 9  -x 329 -y 877 -Z 0 -z 25  -v circle -c black
n -t * -s 10  -x 819 -y 940 -Z 0 -z 25  -v circle -c black
n -t * -s 11  -x 906 -y 742 -Z 0 -z 25  -v circle -c black
n -t * -s 12  -x 833 -y 738 -Z 0 -z 25  -v circle -c black
n -t * -s 13  -x 631 -y 43 -Z 0 -z 25  -v circle -c black
n -t * -s 14  -x 249 -y 1008 -Z 0 -z 25  -v circle -c black
n -t * -s 15  -x 859 -y 304 -Z 0 -z 25  -v circle -c black
n -t * -s 16  -x 96 -y 515 -Z 0 -z 25  -v circle -c black
n -t * -s 17  -x 175 -y 148 -Z 0 -z 25  -v circle -c black
n -t * -s 18  -x 988 -y 512 -Z 0 -z 25  -v circle -c black
n -t * -s 19  -x 985 -y 255 -Z 0 -z 25  -v circle -c black
n -t * -s 20  -x 183 -y 973 -Z 0 -z 25  -v circle -c black
n -t * -s 21  -x 49 -y 785 -Z 0 -z 25  -v circle -c black
n -t * -s 22  -x 806 -y 85 -Z 0 -z 25  -v circle -c black
n -t * -s 23  -x 518 -y 780 -Z 0 -z 25  -v circle -c black
n -t * -s 24  -x 533 -y 249 -Z 0 -z 25  -v circle -c black
V -t * -v 1.0a5 -a 0
W -t * -x 1000 -y 1000
A -t * -n 1 -p 0 -o 0x7fffffff -c 30 -a 1
A -t * -h 1 -m 1073741823 -s 0
n -t 1.000000 -s 0 -x 369.000000 -y 520.000000 -U 1.120058 -V 1.656946 -T 108.030088
n -t 1.000000 -s 1 -x 885.000000 -y 526.000000 -U 0.115215 -V -0.993341 -T 321.138599
n -t 1.000000 -s 2 -x 729.000000 -y 340.000000 -U 1.447033 -V 2.627945 -T 180.369066
n -t 1.000000 -s 3 -x 1008.000000 -y 280.000000 -U -9.104386 -V 4.136443 -T 95.009157
n -t 1.000000 -s 4 -x 798.000000 -y 39.000000 -U -1.758250 -V 0.953182 -T 418.597957
n -t 1.000000 -s 5 -x 602.000000 -y 383.000000 -U 1.682072 -V -1.081958 -T 228.289838
n -t 1.000000 -s 6 -x 402.000000 -y 214.000000 -U 0.512590 -V 1.933197 -T 273.122683
n -t 1.000000 -s 7 -x 857.000000 -y 514.000000 -U -1.843527 -V -0.775506 -T 294.001701
n -t 1.000000 -s 8 -x 389.000000 -y 297.000000 -U 8.871155 -V 1.517434 -T 42.835459
n -t 1.000000 -s 9 -x 329.000000 -y 877.000000 -U 1.505084 -V -8.873259 -T 44.515776
n -t 1.000000 -s 10 -x 819.000000 -y 940.000000 -U -4.046482 -V -5.711916 -T 76.856877
n -t 1.000000 -s 11 -x 906.000000 -y 742.000000 -U -4.123789 -V -4.358252 -T 72.506130
n -t 1.000000 -s 12 -x 833.000000 -y 738.000000 -U -0.600645 -V -0.799516 -T 744.200242
n -t 1.000000 -s 13 -x 631.000000 -y 43.000000 -U -1.347880 -V 6.869004 -T 77.158200
n -t 1.000000 -s 14 -x 249.000000 -y 1008.000000 -U 6.695862 -V -6.013771 -T 87.964780
n -t 1.000000 -s 15 -x 859.000000 -y 304.000000 -U -0.995638 -V -0.093296 -T 685.991982
n -t 1.000000 -s 16 -x 96.000000 -y 515.000000 -U 2.821538 -V 1.019275 -T 215.839704
n -t 1.000000 -s 17 -x 175.000000 -y 148.000000 -U 1.561604 -V 7.846107 -T 26.255059
n -t 1.000000 -s 18 -x 988.000000 -y 512.000000 -U -1.996337 -V -0.120990 -T 16.530275
n -t 1.000000 -s 19 -x 985.000000 -y 255.000000 -U -3.299484 -V 2.261284 -T 140.628056
n -t 1.000000 -s 20 -x 183.000000 -y 973.000000 -U -1.071721 -V -6.917472 -T 20.527731
n -t 1.000000 -s 21 -x 49.000000 -y 785.000000 -U 5.770480 -V -1.643641 -T 84.568348
n -t 1.000000 -s 22 -x 806.000000 -y 85.000000 -U -2.803510 -V 9.598975 -T 32.816002
n -t 1.000000 -s 23 -x 518.000000 -y 780.000000 -U -6.764342 -V 5.936638 -T 35.036665
n -t 1.000000 -s 24 -x 533.000000 -y 249.000000 -U 0.895972 -V 1.788081 -T 258.936768
+ -t 1.000000000 -s 0 -d -1 -p tcp -e 40 -c 2 -a 0 -i 0 -k AGT 
- -t 1.000000000 -s 0 -d -1 -p tcp -e 40 -c 2 -a 0 -i 0 -k AGT
h -t 1.000000000 -s 0 -d -1 -p tcp -e 40 -c 2 -a 0 -i 0 -k AGT
+ -t 1.000000000 -s 0 -d -1 -p AODV -e 48 -c 2 -a 0 -i 0 -k RTR 
- -t 1.000000000 -s 0 -d -1 -p AODV -e 48 -c 2 -a 0 -i 0 -k RTR
h -t 1.000000000 -s 0 -d -1 -p AODV -e 48 -c 2 -a 0 -i 0 -k RTR
r -t 1.000988746 -s 8 -d -1 -p AODV -e 48 -c 2 -a 0 -i 0 -k RTR
+ -t 1.001869973 -s 8 -d -1 -p AODV -e 48 -c 2 -a 0 -i 0 -k RTR 
- -t 1.001869973 -s 8 -d -1 -p AODV -e 48 -c 2 -a 0 -i 0 -k RTR
h -t 1.001869973 -s 8 -d -1 -p AODV -e 48 -c 2 -a 0 -i 0 -k RTR
r -t 1.003138253 -s 6 -d -1 -p AODV -e 48 -c 2 -a 0 -i 0 -k RTR
r -t 1.003138479 -s 24 -d -1 -p AODV -e 48 -c 2 -a 0 -i 0 -k RTR
r -t 1.003138719 -s 0 -d -1 -p AODV -e 48 -c 2 -a 0 -i 0 -k RTR
r -t 1.003138739 -s 5 -d -1 -p AODV -e 48 -c 2 -a 0 -i 0 -k RTR
+ -t 1.005484756 -s 5 -d -1 -p AODV -e 48 -c 2 -a 0 -i 0 -k RTR 
- -t 1.005484756 -s 5 -d -1 -p AODV -e 48 -c 2 -a 0 -i 0 -k RTR
h -t 1.005484756 -s 5 -d -1 -p AODV -e 48 -c 2 -a 0 -i 0 -k RTR
+ -t 1.006267871 -s 6 -d -1 -p AODV -e 48 -c 2 -a 0 -i 0 -k RTR 
- -t 1.006267871 -s 6 -d -1 -p AODV -e 48 -c 2 -a 0 -i 0 -k RTR
h -t 1.006267871 -s 6 -d -1 -p AODV -e 48 -c 2 -a 0 -i 0 -k RTR
r -t 1.006793203 -s 2 -d -1 -p AODV -e 48 -c 2 -a 0 -i 0 -k RTR
r -t 1.006793259 -s 24 -d -1 -p AODV -e 48 -c 2 -a 0 -i 0 -k RTR
r -t 1.006793522 -s 8 -d -1 -p AODV -e 48 -c 2 -a 0 -i 0 -k RTR
r -t 1.008315909 -s 8 -d -1 -p AODV -e 48 -c 2 -a 0 -i 0 -k RTR
r -t 1.008316081 -s 24 -d -1 -p AODV -e 48 -c 2 -a 0 -i 0 -k RTR
r -t 1.008316417 -s 17 -d -1 -p AODV -e 48 -c 2 -a 0 -i 0 -k RTR
+ -t 1.008434657 -s 2 -d -1 -p AODV -e 48 -c 2 -a 0 -i 0 -k RTR 
- -t 1.008434657 -s 2 -d -1 -p AODV -e 48 -c 2 -a 0 -i 0 -k RTR
h -t 1.008434657 -s 2 -d -1 -p AODV -e 48 -c 2 -a 0 -i 0 -k RTR
r -t 1.009939244 -s 5 -d -1 -p AODV -e 48 -c 2 -a 0 -i 0 -k RTR
r -t 1.009939247 -s 15 -d -1 -p AODV -e 48 -c 2 -a 0 -i 0 -k RTR
r -t 1.009939517 -s 7 -d -1 -p AODV -e 48 -c 2 -a 0 -i 0 -k RTR
r -t 1.009939517 -s 24 -d -1 -p AODV -e 48 -c 2 -a 0 -i 0 -k RTR
r -t 1.009939606 -s 1 -d -1 -p AODV -e 48 -c 2 -a 0 -i 0 -k RTR
+ -t 1.010880995 -s 1 -d -1 -p AODV -e 48 -c 2 -a 0 -i 0 -k RTR 
- -t 1.010880995 -s 1 -d -1 -p AODV -e 48 -c 2 -a 0 -i 0 -k RTR
h -t 1.010880995 -s 1 -d -1 -p AODV -e 48 -c 2 -a 0 -i 0 -k RTR
+ -t 1.011303239 -s 24 -d -1 -p AODV -e 48 -c 2 -a 0 -i 0 -k RTR 
- -t 1.011303239 -s 24 -d -1 -p AODV -e 48 -c 2 -a 0 -i 0 -k RTR
h -t 1.011303239 -s 24 -d -1 -p AODV -e 48 -c 2 -a 0 -i 0 -k RTR
+ -t 1.011687570 -s 7 -d -1 -p AODV -e 48 -c 2 -a 0 -i 0 -k RTR 
- -t 1.011687570 -s 7 -d -1 -p AODV -e 48 -c 2 -a 0 -i 0 -k RTR
h -t 1.011687570 -s 7 -d -1 -p AODV -e 48 -c 2 -a 0 -i 0 -k RTR
r -t 1.012149096 -s 7 -d -1 -p AODV -e 48 -c 2 -a 0 -i 0 -k RTR
r -t 1.012149341 -s 18 -d -1 -p AODV -e 48 -c 2 -a 0 -i 0 -k RTR
r -t 1.012149718 -s 11 -d -1 -p AODV -e 48 -c 2 -a 0 -i 0 -k RTR
r -t 1.012149722 -s 12 -d -1 -p AODV -e 48 -c 2 -a 0 -i 0 -k RTR
r -t 1.012149740 -s 15 -d -1 -p AODV -e 48 -c 2 -a 0 -i 0 -k RTR
r -t 1.012149804 -s 2 -d -1 -p AODV -e 48 -c 2 -a 0 -i 0 -k RTR
r -t 1.013267198 -s 1 -d -1 -p AODV -e 48 -c 2 -a 0 -i 0 -k RTR
r -t 1.013267533 -s 18 -d -1 -p AODV -e 48 -c 2 -a 0 -i 0 -k RTR
r -t 1.013267796 -s 15 -d -1 -p AODV -e 48 -c 2 -a 0 -i 0 -k RTR
r -t 1.013267816 -s 2 -d -1 -p AODV -e 48 -c 2 -a 0 -i 0 -k RTR
r -t 1.013267847 -s 12 -d -1 -p AODV -e 48 -c 2 -a 0 -i 0 -k RTR
r -t 1.013267874 -s 11 -d -1 -p AODV -e 48 -c 2 -a 0 -i 0 -k RTR
+ -t 1.014175814 -s 15 -d -1 -p AODV -e 48 -c 2 -a 0 -i 0 -k RTR 
- -t 1.014175814 -s 15 -d -1 -p AODV -e 48 -c 2 -a 0 -i 0 -k RTR
h -t 1.014175814 -s 15 -d -1 -p AODV -e 48 -c 2 -a 0 -i 0 -k RTR
+ -t 1.014717093 -s 17 -d -1 -p AODV -e 48 -c 2 -a 0 -i 0 -k RTR 
- -t 1.014717093 -s 17 -d -1 -p AODV -e 48 -c 2 -a 0 -i 0 -k RTR
h -t 1.014717093 -s 17 -d -1 -p AODV -e 48 -c 2 -a 0 -i 0 -k RTR
r -t 1.014730943 -s 6 -d -1 -p AODV -e 48 -c 2 -a 0 -i 0 -k RTR
r -t 1.014730994 -s 5 -d -1 -p AODV -e 48 -c 2 -a 0 -i 0 -k RTR
r -t 1.014730997 -s 8 -d -1 -p AODV -e 48 -c 2 -a 0 -i 0 -k RTR
r -t 1.014731212 -s 2 -d -1 -p AODV -e 48 -c 2 -a 0 -i 0 -k RTR
r -t 1.014731252 -s 13 -d -1 -p AODV -e 48 -c 2 -a 0 -i 0 -k RTR
r -t 1.016034519 -s 6 -d -1 -p AODV -e 48 -c 2 -a 0 -i 0 -k RTR
r -t 1.016394043 -s 2 -d -1 -p AODV -e 48 -c 2 -a 0 -i 0 -k RTR
r -t 1.016394044 -s 19 -d -1 -p AODV -e 48 -c 2 -a 0 -i 0 -k RTR
r -t 1.016394096 -s 3 -d -1 -p AODV -e 48 -c 2 -a 0 -i 0 -k RTR
r -t 1.016394293 -s 7 -d -1 -p AODV -e 48 -c 2 -a 0 -i 0 -k RTR
r -t 1.016394338 -s 1 -d -1 -p AODV -e 48 -c 2 -a 0 -i 0 -k RTR
r -t 1.016394344 -s 22 -d -1 -p AODV -e 48 -c 2 -a 0 -i 0 -k RTR
r -t 1.016394409 -s 18 -d -1 -p AODV -e 48 -c 2 -a 0 -i 0 -k RTR
+ -t 1.016810877 -s 11 -d -1 -p AODV -e 48 -c 2 -a 0 -i 0 -k RTR 
- -t 1.016810877 -s 11 -d -1 -p AODV -e 48 -c 2 -a 0 -i 0 -k RTR
h -t 1.016810877 -s 11 -d -1 -p AODV -e 48 -c 2 -a 0 -i 0 -k RTR
+ -t 1.017143508 -s 13 -d -1 -p AODV -e 48 -c 2 -a 0 -i 0 -k RTR 
- -t 1.017143508 -s 13 -d -1 -p AODV -e 48 -c 2 -a 0 -i 0 -k RTR
h -t 1.017143508 -s 13 -d -1 -p AODV -e 48 -c 2 -a 0 -i 0 -k RTR
+ -t 1.017335829 -s 18 -d -1 -p AODV -e 48 -c 2 -a 0 -i 0 -k RTR 
- -t 1.017335829 -s 18 -d -1 -p AODV -e 48 -c 2 -a 0 -i 0 -k RTR
h -t 1.017335829 -s 18 -d -1 -p AODV -e 48 -c 2 -a 0 -i 0 -k RTR
+ -t 1.017486329 -s 22 -d -1 -p AODV -e 48 -c 2 -a 0 -i 0 -k RTR 
- -t 1.017486329 -s 22 -d -1 -p AODV -e 48 -c 2 -a 0 -i 0 -k RTR
h -t 1.017486329 -s 22 -d -1 -p AODV -e 48 -c 2 -a 0 -i 0 -k RTR
r -t 1.017959121 -s 12 -d -1 -p AODV -e 48 -c 2 -a 0 -i 0 -k RTR
r -t 1.017959598 -s 10 -d -1 -p AODV -e 48 -c 2 -a 0 -i 0 -k RTR
r -t 1.017959601 -s 1 -d -1 -p AODV -e 48 -c 2 -a 0 -i 0 -k RTR
r -t 1.017959654 -s 7 -d -1 -p AODV -e 48 -c 2 -a 0 -i 0 -k RTR
r -t 1.017959691 -s 18 -d -1 -p AODV -e 48 -c 2 -a 0 -i 0 -k RTR
r -t 1.018192065 -s 4 -d -1 -p AODV -e 48 -c 2 -a 0 -i 0 -k RTR
+ -t 1.018192065 -s 4 -d 13 -p AODV -e 44 -c 2 -a 0 -i 0 -k RTR 
- -t 1.018192065 -s 4 -d 13 -p AODV -e 44 -c 2 -a 0 -i 0 -k RTR
h -t 1.018192065 -s 4 -d 13 -p AODV -e 44 -c 2 -a 0 -i 0 -k RTR
r -t 1.018192108 -s 22 -d -1 -p AODV -e 48 -c 2 -a 0 -i 0 -k RTR
r -t 1.018192268 -s 24 -d -1 -p AODV -e 48 -c 2 -a 0 -i 0 -k RTR
+ -t 1.019072791 -s 12 -d -1 -p AODV -e 48 -c 2 -a 0 -i 0 -k RTR 
- -t 1.019072791 -s 12 -d -1 -p AODV -e 48 -c 2 -a 0 -i 0 -k RTR
h -t 1.019072791 -s 12 -d -1 -p AODV -e 48 -c 2 -a 0 -i 0 -k RTR
+ -t 1.019079911 -s 10 -d -1 -p AODV -e 48 -c 2 -a 0 -i 0 -k RTR 
- -t 1.019079911 -s 10 -d -1 -p AODV -e 48 -c 2 -a 0 -i 0 -k RTR
h -t 1.019079911 -s 10 -d -1 -p AODV -e 48 -c 2 -a 0 -i 0 -k RTR
r -t 1.020058377 -s 4 -d -1 -p AODV -e 48 -c 2 -a 0 -i 0 -k RTR
r -t 1.020058821 -s 13 -d -1 -p AODV -e 48 -c 2 -a 0 -i 0 -k RTR
r -t 1.020058971 -s 15 -d -1 -p AODV -e 48 -c 2 -a 0 -i 0 -k RTR
r -t 1.020059043 -s 19 -d -1 -p AODV -e 48 -c 2 -a 0 -i 0 -k RTR
r -t 1.020208586 -s 12 -d -1 -p AODV -e 48 -c 2 -a 0 -i 0 -k RTR
r -t 1.020208632 -s 11 -d -1 -p AODV -e 48 -c 2 -a 0 -i 0 -k RTR
+ -t 1.020449287 -s 3 -d -1 -p AODV -e 48 -c 2 -a 0 -i 0 -k RTR 
- -t 1.020449287 -s 3 -d -1 -p AODV -e 48 -c 2 -a 0 -i 0 -k RTR
h -t 1.020449287 -s 3 -d -1 -p AODV -e 48 -c 2 -a 0 -i 0 -k RTR
r -t 1.021206829 -s 11 -d -1 -p AODV -e 48 -c 2 -a 0 -i 0 -k RTR
r -t 1.021207261 -s 10 -d -1 -p AODV -e 48 -c 2 -a 0 -i 0 -k RTR
r -t 1.021207314 -s 1 -d -1 -p AODV -e 48 -c 2 -a 0 -i 0 -k RTR
r -t 1.021207337 -s 7 -d -1 -p AODV -e 48 -c 2 -a 0 -i 0 -k RTR
r -t 1.022619890 -s 11 -d -1 -p AODV -e 48 -c 2 -a 0 -i 0 -k RTR
r -t 1.023881965 -s 19 -d -1 -p AODV -e 48 -c 2 -a 0 -i 0 -k RTR
r -t 1.023882355 -s 15 -d -1 -p AODV -e 48 -c 2 -a 0 -i 0 -k RTR
r -t 1.023882628 -s 18 -d -1 -p AODV -e 48 -c 2 -a 0 -i 0 -k RTR
+ -t 1.025443499 -s 19 -d -1 -p AODV -e 48 -c 2 -a 0 -i 0 -k RTR 
- -t 1.025443499 -s 19 -d -1 -p AODV -e 48 -c 2 -a 0 -i 0 -k RTR
h -t 1.025443499 -s 19 -d -1 -p AODV -e 48 -c 2 -a 0 -i 0 -k RTR
+ -t 1.026110588 -s 13 -d 24 -p AODV -e 44 -c 2 -a 0 -i 0 -k RTR 
- -t 1.026110588 -s 13 -d 24 -p AODV -e 44 -c 2 -a 0 -i 0 -k RTR
h -t 1.026110588 -s 13 -d 24 -p AODV -e 44 -c 2 -a 0 -i 0 -k RTR
+ -t 1.030742907 -s 24 -d 8 -p AODV -e 44 -c 2 -a 0 -i 0 -k RTR 
- -t 1.030742907 -s 24 -d 8 -p AODV -e 44 -c 2 -a 0 -i 0 -k RTR
h -t 1.030742907 -s 24 -d 8 -p AODV -e 44 -c 2 -a 0 -i 0 -k RTR
r -t 1.034100537 -s 3 -d -1 -p AODV -e 48 -c 2 -a 0 -i 0 -k RTR
+ -t 1.036129446 -s 8 -d 0 -p AODV -e 44 -c 2 -a 0 -i 0 -k RTR 
- -t 1.036129446 -s 8 -d 0 -p AODV -e 44 -c 2 -a 0 -i 0 -k RTR
h -t 1.036129446 -s 8 -d 0 -p AODV -e 44 -c 2 -a 0 -i 0 -k RTR
+ -t 1.041121671 -s 0 -d 8 -p tcp -e 40 -c 2 -a 0 -i 0 -k RTR 
- -t 1.041121671 -s 0 -d 8 -p tcp -e 40 -c 2 -a 0 -i 0 -k RTR
h -t 1.041121671 -s 0 -d 8 -p tcp -e 40 -c 2 -a 0 -i 0 -k RTR
+ -t 1.043207910 -s 8 -d 24 -p tcp -e 40 -c 2 -a 0 -i 0 -k RTR 
- -t 1.043207910 -s 8 -d 24 -p tcp -e 40 -c 2 -a 0 -i 0 -k RTR
h -t 1.043207910 -s 8 -d 24 -p tcp -e 40 -c 2 -a 0 -i 0 -k RTR
+ -t 1.045093424 -s 24 -d 13 -p tcp -e 40 -c 2 -a 0 -i 0 -k RTR 
- -t 1.045093424 -s 24 -d 13 -p tcp -e 40 -c 2 -a 0 -i 0 -k RTR
h -t 1.045093424 -s 24 -d 13 -p tcp -e 40 -c 2 -a 0 -i 0 -k RTR
+ -t 1.047519703 -s 13 -d 4 -p tcp -e 40 -c 2 -a 0 -i 0 -k RTR 
- -t 1.047519703 -s 13 -d 4 -p tcp -e 40 -c 2 -a 0 -i 0 -k RTR
h -t 1.047519703 -s 13 -d 4 -p tcp -e 40 -c 2 -a 0 -i 0 -k RTR
r -t 1.049405373 -s 4 -d 4 -p tcp -e 40 -c 2 -a 0 -i 0 -k AGT
+ -t 1.049405373 -s 4 -d -1 -p ack -e 40 -c 2 -a 0 -i 1 -k AGT 
- -t 1.049405373 -s 4 -d -1 -p ack -e 40 -c 2 -a 0 -i 1 -k AGT
h -t 1.049405373 -s 4 -d -1 -p ack -e 40 -c 2 -a 0 -i 1 -k AGT
+ -t 1.049405373 -s 4 -d 13 -p ack -e 40 -c 2 -a 0 -i 1 -k RTR 
- -t 1.049405373 -s 4 -d 13 -p ack -e 40 -c 2 -a 0 -i 1 -k RTR
h -t 1.049405373 -s 4 -d 13 -p ack -e 40 -c 2 -a 0 -i 1 -k RTR
+ -t 1.051351044 -s 13 -d 24 -p ack -e 40 -c 2 -a 0 -i 1 -k RTR 
- -t 1.051351044 -s 13 -d 24 -p ack -e 40 -c 2 -a 0 -i 1 -k RTR
h -t 1.051351044 -s 13 -d 24 -p ack -e 40 -c 2 -a 0 -i 1 -k RTR
+ -t 1.053677322 -s 24 -d 8 -p ack -e 40 -c 2 -a 0 -i 1 -k RTR 
- -t 1.053677322 -s 24 -d 8 -p ack -e 40 -c 2 -a 0 -i 1 -k RTR
h -t 1.053677322 -s 24 -d 8 -p ack -e 40 -c 2 -a 0 -i 1 -k RTR
+ -t 1.055602836 -s 8 -d 0 -p ack -e 40 -c 2 -a 0 -i 1 -k RTR 
- -t 1.055602836 -s 8 -d 0 -p ack -e 40 -c 2 -a 0 -i 1 -k RTR
h -t 1.055602836 -s 8 -d 0 -p ack -e 40 -c 2 -a 0 -i 1 -k RTR
r -t 1.057729075 -s 0 -d 0 -p ack -e 40 -c 2 -a 0 -i 1 -k AGT
+ -t 1.057729075 -s 0 -d -1 -p tcp -e 1540 -c 2 -a 0 -i 2 -k AGT 
- -t 1.057729075 -s 0 -d -1 -p tcp -e 1540 -c 2 -a 0 -i 2 -k AGT
h -t 1.057729075 -s 0 -d -1 -p tcp -e 1540 -c 2 -a 0 -i 2 -k AGT
+ -t 1.057729075 -s 0 -d -1 -p tcp -e 1540 -c 2 -a 0 -i 3 -k AGT 
- -t 1.057729075 -s 0 -d -1 -p tcp -e 1540 -c 2 -a 0 -i 3 -k AGT
h -t 1.057729075 -s 0 -d -1 -p tcp -e 1540 -c 2 -a 0 -i 3 -k AGT
+ -t 1.057729075 -s 0 -d 8 -p tcp -e 1540 -c 2 -a 0 -i 2 -k RTR 
- -t 1.057729075 -s 0 -d 8 -p tcp -e 1540 -c 2 -a 0 -i 2 -k RTR
h -t 1.057729075 -s 0 -d 8 -p tcp -e 1540 -c 2 -a 0 -i 2 -k RTR
+ -t 1.057729075 -s 0 -d 8 -p tcp -e 1540 -c 2 -a 0 -i 3 -k RTR 
- -t 1.057729075 -s 0 -d 8 -p tcp -e 1540 -c 2 -a 0 -i 3 -k RTR
h -t 1.057729075 -s 0 -d 8 -p tcp -e 1540 -c 2 -a 0 -i 3 -k RTR
+ -t 1.071855315 -s 8 -d 24 -p tcp -e 1540 -c 2 -a 0 -i 2 -k RTR 
- -t 1.071855315 -s 8 -d 24 -p tcp -e 1540 -c 2 -a 0 -i 2 -k RTR
h -t 1.071855315 -s 8 -d 24 -p tcp -e 1540 -c 2 -a 0 -i 2 -k RTR
+ -t 1.086708301 -s 8 -d 24 -p tcp -e 1540 -c 2 -a 0 -i 3 -k RTR 
- -t 1.086708301 -s 8 -d 24 -p tcp -e 1540 -c 2 -a 0 -i 3 -k RTR
h -t 1.086708301 -s 8 -d 24 -p tcp -e 1540 -c 2 -a 0 -i 3 -k RTR
+ -t 1.100953812 -s 24 -d 13 -p tcp -e 1540 -c 2 -a 0 -i 2 -k RTR 
- -t 1.100953812 -s 24 -d 13 -p tcp -e 1540 -c 2 -a 0 -i 2 -k RTR
h -t 1.100953812 -s 24 -d 13 -p tcp -e 1540 -c 2 -a 0 -i 2 -k RTR
+ -t 1.114940087 -s 13 -d 4 -p tcp -e 1540 -c 2 -a 0 -i 2 -k RTR 
- -t 1.114940087 -s 13 -d 4 -p tcp -e 1540 -c 2 -a 0 -i 2 -k RTR
h -t 1.114940087 -s 13 -d 4 -p tcp -e 1540 -c 2 -a 0 -i 2 -k RTR
r -t 1.128885758 -s 4 -d 4 -p tcp -e 1540 -c 2 -a 0 -i 2 -k AGT
+ -t 1.128885758 -s 4 -d -1 -p ack -e 40 -c 2 -a 0 -i 4 -k AGT 
- -t 1.128885758 -s 4 -d -1 -p ack -e 40 -c 2 -a 0 -i 4 -k AGT
h -t 1.128885758 -s 4 -d -1 -p ack -e 40 -c 2 -a 0 -i 4 -k AGT
+ -t 1.128885758 -s 4 -d 13 -p ack -e 40 -c 2 -a 0 -i 4 -k RTR 
- -t 1.128885758 -s 4 -d 13 -p ack -e 40 -c 2 -a 0 -i 4 -k RTR
h -t 1.128885758 -s 4 -d 13 -p ack -e 40 -c 2 -a 0 -i 4 -k RTR
+ -t 1.130831428 -s 13 -d 24 -p ack -e 40 -c 2 -a 0 -i 4 -k RTR 
- -t 1.130831428 -s 13 -d 24 -p ack -e 40 -c 2 -a 0 -i 4 -k RTR
h -t 1.130831428 -s 13 -d 24 -p ack -e 40 -c 2 -a 0 -i 4 -k RTR
+ -t 1.132717702 -s 24 -d 8 -p ack -e 40 -c 2 -a 0 -i 4 -k RTR 
- -t 1.132717702 -s 24 -d 8 -p ack -e 40 -c 2 -a 0 -i 4 -k RTR
h -t 1.132717702 -s 24 -d 8 -p ack -e 40 -c 2 -a 0 -i 4 -k RTR
+ -t 1.134843209 -s 8 -d 0 -p ack -e 40 -c 2 -a 0 -i 4 -k RTR 
- -t 1.134843209 -s 8 -d 0 -p ack -e 40 -c 2 -a 0 -i 4 -k RTR
h -t 1.134843209 -s 8 -d 0 -p ack -e 40 -c 2 -a 0 -i 4 -k RTR
+ -t 1.148728717 -s 24 -d 13 -p tcp -e 1540 -c 2 -a 0 -i 3 -k RTR 
- -t 1.148728717 -s 24 -d 13 -p tcp -e 1540 -c 2 -a 0 -i 3 -k RTR
h -t 1.148728717 -s 24 -d 13 -p tcp -e 1540 -c 2 -a 0 -i 3 -k RTR
+ -t 1.162654990 -s 13 -d 4 -p tcp -e 1540 -c 2 -a 0 -i 3 -k RTR 
- -t 1.162654990 -s 13 -d 4 -p tcp -e 1540 -c 2 -a 0 -i 3 -k RTR
h -t 1.162654990 -s 13 -d 4 -p tcp -e 1540 -c 2 -a 0 -i 3 -k RTR
r -t 1.176800660 -s 4 -d 4 -p tcp -e 1540 -c 2 -a 0 -i 3 -k AGT
+ -t 1.176800660 -s 4 -d -1 -p ack -e 40 -c 2 -a 0 -i 5 -k AGT 
- -t 1.176800660 -s 4 -d -1 -p ack -e 40 -c 2 -a 0 -i 5 -k AGT
h -t 1.176800660 -s 4 -d -1 -p ack -e 40 -c 2 -a 0 -i 5 -k AGT
+ -t 1.176800660 -s 4 -d 13 -p ack -e 40 -c 2 -a 0 -i 5 -k RTR 
- -t 1.176800660 -s 4 -d 13 -p ack -e 40 -c 2 -a 0 -i 5 -k RTR
h -t 1.176800660 -s 4 -d 13 -p ack -e 40 -c 2 -a 0 -i 5 -k RTR
+ -t 1.179126330 -s 13 -d 24 -p ack -e 40 -c 2 -a 0 -i 5 -k RTR 
- -t 1.179126330 -s 13 -d 24 -p ack -e 40 -c 2 -a 0 -i 5 -k RTR
h -t 1.179126330 -s 13 -d 24 -p ack -e 40 -c 2 -a 0 -i 5 -k RTR
+ -t 1.181112601 -s 24 -d 8 -p ack -e 40 -c 2 -a 0 -i 5 -k RTR 
- -t 1.181112601 -s 24 -d 8 -p ack -e 40 -c 2 -a 0 -i 5 -k RTR
h -t 1.181112601 -s 24 -d 8 -p ack -e 40 -c 2 -a 0 -i 5 -k RTR
r -t 1.183149247 -s 0 -d 0 -p ack -e 40 -c 2 -a 0 -i 4 -k AGT
+ -t 1.183149247 -s 0 -d -1 -p tcp -e 1540 -c 2 -a 0 -i 6 -k AGT 
- -t 1.183149247 -s 0 -d -1 -p tcp -e 1540 -c 2 -a 0 -i 6 -k AGT
h -t 1.183149247 -s 0 -d -1 -p tcp -e 1540 -c 2 -a 0 -i 6 -k AGT
+ -t 1.183149247 -s 0 -d -1 -p tcp -e 1540 -c 2 -a 0 -i 7 -k AGT 
- -t 1.183149247 -s 0 -d -1 -p tcp -e 1540 -c 2 -a 0 -i 7 -k AGT
h -t 1.183149247 -s 0 -d -1 -p tcp -e 1540 -c 2 -a 0 -i 7 -k AGT
+ -t 1.183149247 -s 0 -d 8 -p tcp -e 1540 -c 2 -a 0 -i 6 -k RTR 
- -t 1.183149247 -s 0 -d 8 -p tcp -e 1540 -c 2 -a 0 -i 6 -k RTR
h -t 1.183149247 -s 0 -d 8 -p tcp -e 1540 -c 2 -a 0 -i 6 -k RTR
+ -t 1.183149247 -s 0 -d 8 -p tcp -e 1540 -c 2 -a 0 -i 7 -k RTR 
- -t 1.183149247 -s 0 -d 8 -p tcp -e 1540 -c 2 -a 0 -i 7 -k RTR
h -t 1.183149247 -s 0 -d 8 -p tcp -e 1540 -c 2 -a 0 -i 7 -k RTR
+ -t 1.196975488 -s 8 -d 24 -p tcp -e 1540 -c 2 -a 0 -i 6 -k RTR 
- -t 1.196975488 -s 8 -d 24 -p tcp -e 1540 -c 2 -a 0 -i 6 -k RTR
h -t 1.196975488 -s 8 -d 24 -p tcp -e 1540 -c 2 -a 0 -i 6 -k RTR
+ -t 1.210860991 -s 24 -d 13 -p tcp -e 1540 -c 2 -a 0 -i 6 -k RTR 
- -t 1.210860991 -s 24 -d 13 -p tcp -e 1540 -c 2 -a 0 -i 6 -k RTR
h -t 1.210860991 -s 24 -d 13 -p tcp -e 1540 -c 2 -a 0 -i 6 -k RTR
+ -t 1.212746492 -s 8 -d 0 -p ack -e 40 -c 2 -a 0 -i 5 -k RTR 
- -t 1.212746492 -s 8 -d 0 -p ack -e 40 -c 2 -a 0 -i 5 -k RTR
h -t 1.212746492 -s 8 -d 0 -p ack -e 40 -c 2 -a 0 -i 5 -k RTR
+ -t 1.226993262 -s 13 -d 4 -p tcp -e 1540 -c 2 -a 0 -i 6 -k RTR 
- -t 1.226993262 -s 13 -d 4 -p tcp -e 1540 -c 2 -a 0 -i 6 -k RTR
h -t 1.226993262 -s 13 -d 4 -p tcp -e 1540 -c 2 -a 0 -i 6 -k RTR
r -t 1.240838932 -s 4 -d 4 -p tcp -e 1540 -c 2 -a 0 -i 6 -k AGT
+ -t 1.240838932 -s 4 -d -1 -p ack -e 40 -c 2 -a 0 -i 8 -k AGT 
- -t 1.240838932 -s 4 -d -1 -p ack -e 40 -c 2 -a 0 -i 8 -k AGT
h -t 1.240838932 -s 4 -d -1 -p ack -e 40 -c 2 -a 0 -i 8 -k AGT
+ -t 1.240838932 -s 4 -d 13 -p ack -e 40 -c 2 -a 0 -i 8 -k RTR 
- -t 1.240838932 -s 4 -d 13 -p ack -e 40 -c 2 -a 0 -i 8 -k RTR
h -t 1.240838932 -s 4 -d 13 -p ack -e 40 -c 2 -a 0 -i 8 -k RTR
+ -t 1.243564602 -s 13 -d 24 -p ack -e 40 -c 2 -a 0 -i 8 -k RTR 
- -t 1.243564602 -s 13 -d 24 -p ack -e 40 -c 2 -a 0 -i 8 -k RTR
h -t 1.243564602 -s 13 -d 24 -p ack -e 40 -c 2 -a 0 -i 8 -k RTR
+ -t 1.245610870 -s 24 -d 8 -p ack -e 40 -c 2 -a 0 -i 8 -k RTR 
- -t 1.245610870 -s 24 -d 8 -p ack -e 40 -c 2 -a 0 -i 8 -k RTR
h -t 1.245610870 -s 24 -d 8 -p ack -e 40 -c 2 -a 0 -i 8 -k RTR
r -t 1.247627516 -s 0 -d 0 -p ack -e 40 -c 2 -a 0 -i 5 -k AGT
+ -t 1.247627516 -s 0 -d -1 -p tcp -e 1540 -c 2 -a 0 -i 9 -k AGT 
- -t 1.247627516 -s 0 -d -1 -p tcp -e 1540 -c 2 -a 0 -i 9 -k AGT
h -t 1.247627516 -s 0 -d -1 -p tcp -e 1540 -c 2 -a 0 -i 9 -k AGT
+ -t 1.247627516 -s 0 -d -1 -p tcp -e 1540 -c 2 -a 0 -i 10 -k AGT 
- -t 1.247627516 -s 0 -d -1 -p tcp -e 1540 -c 2 -a 0 -i 10 -k AGT
h -t 1.247627516 -s 0 -d -1 -p tcp -e 1540 -c 2 -a 0 -i 10 -k AGT
+ -t 1.247627516 -s 0 -d 8 -p tcp -e 1540 -c 2 -a 0 -i 9 -k RTR 
- -t 1.247627516 -s 0 -d 8 -p tcp -e 1540 -c 2 -a 0 -i 9 -k RTR
h -t 1.247627516 -s 0 -d 8 -p tcp -e 1540 -c 2 -a 0 -i 9 -k RTR
+ -t 1.247627516 -s 0 -d 8 -p tcp -e 1540 -c 2 -a 0 -i 10 -k RTR 
- -t 1.247627516 -s 0 -d 8 -p tcp -e 1540 -c 2 -a 0 -i 10 -k RTR
h -t 1.247627516 -s 0 -d 8 -p tcp -e 1540 -c 2 -a 0 -i 10 -k RTR
+ -t 1.261553757 -s 8 -d 24 -p tcp -e 1540 -c 2 -a 0 -i 7 -k RTR 
- -t 1.261553757 -s 8 -d 24 -p tcp -e 1540 -c 2 -a 0 -i 7 -k RTR
h -t 1.261553757 -s 8 -d 24 -p tcp -e 1540 -c 2 -a 0 -i 7 -k RTR
+ -t 1.263689563 -s 8 -d 0 -p ack -e 40 -c 2 -a 0 -i 8 -k RTR 
- -t 1.263689563 -s 8 -d 0 -p ack -e 40 -c 2 -a 0 -i 8 -k RTR
h -t 1.263689563 -s 8 -d 0 -p ack -e 40 -c 2 -a 0 -i 8 -k RTR
+ -t 1.277586361 -s 8 -d 24 -p tcp -e 1540 -c 2 -a 0 -i 9 -k RTR 
- -t 1.277586361 -s 8 -d 24 -p tcp -e 1540 -c 2 -a 0 -i 9 -k RTR
h -t 1.277586361 -s 8 -d 24 -p tcp -e 1540 -c 2 -a 0 -i 9 -k RTR
+ -t 1.291431857 -s 24 -d 13 -p tcp -e 1540 -c 2 -a 0 -i 7 -k RTR 
- -t 1.291431857 -s 24 -d 13 -p tcp -e 1540 -c 2 -a 0 -i 7 -k RTR
h -t 1.291431857 -s 24 -d 13 -p tcp -e 1540 -c 2 -a 0 -i 7 -k RTR
+ -t 1.305378122 -s 13 -d 4 -p tcp -e 1540 -c 2 -a 0 -i 7 -k RTR 
- -t 1.305378122 -s 13 -d 4 -p tcp -e 1540 -c 2 -a 0 -i 7 -k RTR
h -t 1.305378122 -s 13 -d 4 -p tcp -e 1540 -c 2 -a 0 -i 7 -k RTR
r -t 1.319343792 -s 4 -d 4 -p tcp -e 1540 -c 2 -a 0 -i 7 -k AGT
+ -t 1.319343792 -s 4 -d -1 -p ack -e 40 -c 2 -a 0 -i 11 -k AGT 
- -t 1.319343792 -s 4 -d -1 -p ack -e 40 -c 2 -a 0 -i 11 -k AGT
h -t 1.319343792 -s 4 -d -1 -p ack -e 40 -c 2 -a 0 -i 11 -k AGT
+ -t 1.319343792 -s 4 -d 13 -p ack -e 40 -c 2 -a 0 -i 11 -k RTR 
- -t 1.319343792 -s 4 -d 13 -p ack -e 40 -c 2 -a 0 -i 11 -k RTR
h -t 1.319343792 -s 4 -d 13 -p ack -e 40 -c 2 -a 0 -i 11 -k RTR
r -t 1.322588033 -s 0 -d 0 -p ack -e 40 -c 2 -a 0 -i 8 -k AGT
+ -t 1.322588033 -s 0 -d -1 -p tcp -e 1540 -c 2 -a 0 -i 12 -k AGT 
- -t 1.322588033 -s 0 -d -1 -p tcp -e 1540 -c 2 -a 0 -i 12 -k AGT
h -t 1.322588033 -s 0 -d -1 -p tcp -e 1540 -c 2 -a 0 -i 12 -k AGT
+ -t 1.322588033 -s 0 -d -1 -p tcp -e 1540 -c 2 -a 0 -i 13 -k AGT 
- -t 1.322588033 -s 0 -d -1 -p tcp -e 1540 -c 2 -a 0 -i 13 -k AGT
h -t 1.322588033 -s 0 -d -1 -p tcp -e 1540 -c 2 -a 0 -i 13 -k AGT
+ -t 1.322588033 -s 0 -d 8 -p tcp -e 1540 -c 2 -a 0 -i 12 -k RTR 
- -t 1.322588033 -s 0 -d 8 -p tcp -e 1540 -c 2 -a 0 -i 12 -k RTR
h -t 1.322588033 -s 0 -d 8 -p tcp -e 1540 -c 2 -a 0 -i 12 -k RTR
+ -t 1.322588033 -s 0 -d 8 -p tcp -e 1540 -c 2 -a 0 -i 13 -k RTR 
- -t 1.322588033 -s 0 -d 8 -p tcp -e 1540 -c 2 -a 0 -i 13 -k RTR
h -t 1.322588033 -s 0 -d 8 -p tcp -e 1540 -c 2 -a 0 -i 13 -k RTR
+ -t 1.336954273 -s 24 -d 13 -p tcp -e 1540 -c 2 -a 0 -i 9 -k RTR 
- -t 1.336954273 -s 24 -d 13 -p tcp -e 1540 -c 2 -a 0 -i 9 -k RTR
h -t 1.336954273 -s 24 -d 13 -p tcp -e 1540 -c 2 -a 0 -i 9 -k RTR
+ -t 1.352112786 -s 13 -d 4 -p tcp -e 1540 -c 2 -a 0 -i 9 -k RTR 
- -t 1.352112786 -s 13 -d 4 -p tcp -e 1540 -c 2 -a 0 -i 9 -k RTR
h -t 1.352112786 -s 13 -d 4 -p tcp -e 1540 -c 2 -a 0 -i 9 -k RTR
+ -t 1.354408827 -s 13 -d 24 -p ack -e 40 -c 2 -a 0 -i 11 -k RTR 
- -t 1.354408827 -s 13 -d 24 -p ack -e 40 -c 2 -a 0 -i 11 -k RTR
h -t 1.354408827 -s 13 -d 24 -p ack -e 40 -c 2 -a 0 -i 11 -k RTR
r -t 1.368358998 -s 4 -d 4 -p tcp -e 1540 -c 2 -a 0 -i 9 -k AGT
+ -t 1.368358998 -s 4 -d -1 -p ack -e 40 -c 2 -a 0 -i 14 -k AGT 
- -t 1.368358998 -s 4 -d -1 -p ack -e 40 -c 2 -a 0 -i 14 -k AGT
h -t 1.368358998 -s 4 -d -1 -p ack -e 40 -c 2 -a 0 -i 14 -k AGT
+ -t 1.368358998 -s 4 -d 13 -p ack -e 40 -c 2 -a 0 -i 14 -k RTR 
- -t 1.368358998 -s 4 -d 13 -p ack -e 40 -c 2 -a 0 -i 14 -k RTR
h -t 1.368358998 -s 4 -d 13 -p ack -e 40 -c 2 -a 0 -i 14 -k RTR
+ -t 1.370285815 -s 24 -d 8 -p ack -e 40 -c 2 -a 0 -i 11 -k RTR 
- -t 1.370285815 -s 24 -d 8 -p ack -e 40 -c 2 -a 0 -i 11 -k RTR
h -t 1.370285815 -s 24 -d 8 -p ack -e 40 -c 2 -a 0 -i 11 -k RTR
+ -t 1.372291305 -s 8 -d 0 -p ack -e 40 -c 2 -a 0 -i 11 -k RTR 
- -t 1.372291305 -s 8 -d 0 -p ack -e 40 -c 2 -a 0 -i 11 -k RTR
h -t 1.372291305 -s 8 -d 0 -p ack -e 40 -c 2 -a 0 -i 11 -k RTR
r -t 1.374497547 -s 0 -d 0 -p ack -e 40 -c 2 -a 0 -i 11 -k AGT
+ -t 1.374497547 -s 0 -d -1 -p tcp -e 1540 -c 2 -a 0 -i 15 -k AGT 
- -t 1.374497547 -s 0 -d -1 -p tcp -e 1540 -c 2 -a 0 -i 15 -k AGT
h -t 1.374497547 -s 0 -d -1 -p tcp -e 1540 -c 2 -a 0 -i 15 -k AGT
+ -t 1.374497547 -s 0 -d -1 -p tcp -e 1540 -c 2 -a 0 -i 16 -k AGT 
- -t 1.374497547 -s 0 -d -1 -p tcp -e 1540 -c 2 -a 0 -i 16 -k AGT
h -t 1.374497547 -s 0 -d -1 -p tcp -e 1540 -c 2 -a 0 -i 16 -k AGT
+ -t 1.374497547 -s 0 -d 8 -p tcp -e 1540 -c 2 -a 0 -i 15 -k RTR 
- -t 1.374497547 -s 0 -d 8 -p tcp -e 1540 -c 2 -a 0 -i 15 -k RTR
h -t 1.374497547 -s 0 -d 8 -p tcp -e 1540 -c 2 -a 0 -i 15 -k RTR
+ -t 1.374497547 -s 0 -d 8 -p tcp -e 1540 -c 2 -a 0 -i 16 -k RTR 
- -t 1.374497547 -s 0 -d 8 -p tcp -e 1540 -c 2 -a 0 -i 16 -k RTR
h -t 1.374497547 -s 0 -d 8 -p tcp -e 1540 -c 2 -a 0 -i 16 -k RTR
+ -t 1.376394070 -s 13 -d 24 -p ack -e 40 -c 2 -a 0 -i 14 -k RTR 
- -t 1.376394070 -s 13 -d 24 -p ack -e 40 -c 2 -a 0 -i 14 -k RTR
h -t 1.376394070 -s 13 -d 24 -p ack -e 40 -c 2 -a 0 -i 14 -k RTR
+ -t 1.378220331 -s 24 -d 8 -p ack -e 40 -c 2 -a 0 -i 14 -k RTR 
- -t 1.378220331 -s 24 -d 8 -p ack -e 40 -c 2 -a 0 -i 14 -k RTR
h -t 1.378220331 -s 24 -d 8 -p ack -e 40 -c 2 -a 0 -i 14 -k RTR
+ -t 1.380185820 -s 8 -d 0 -p ack -e 40 -c 2 -a 0 -i 14 -k RTR 
- -t 1.380185820 -s 8 -d 0 -p ack -e 40 -c 2 -a 0 -i 14 -k RTR
h -t 1.380185820 -s 8 -d 0 -p ack -e 40 -c 2 -a 0 -i 14 -k RTR
r -t 1.382112062 -s 0 -d 0 -p ack -e 40 -c 2 -a 0 -i 14 -k AGT
+ -t 1.382112062 -s 0 -d -1 -p tcp -e 1540 -c 2 -a 0 -i 17 -k AGT 
- -t 1.382112062 -s 0 -d -1 -p tcp -e 1540 -c 2 -a 0 -i 17 -k AGT
h -t 1.382112062 -s 0 -d -1 -p tcp -e 1540 -c 2 -a 0 -i 17 -k AGT
+ -t 1.382112062 -s 0 -d -1 -p tcp -e 1540 -c 2 -a 0 -i 18 -k AGT 
- -t 1.382112062 -s 0 -d -1 -p tcp -e 1540 -c 2 -a 0 -i 18 -k AGT
h -t 1.382112062 -s 0 -d -1 -p tcp -e 1540 -c 2 -a 0 -i 18 -k AGT
+ -t 1.382112062 -s 0 -d 8 -p tcp -e 1540 -c 2 -a 0 -i 17 -k RTR 
- -t 1.382112062 -s 0 -d 8 -p tcp -e 1540 -c 2 -a 0 -i 17 -k RTR
h -t 1.382112062 -s 0 -d 8 -p tcp -e 1540 -c 2 -a 0 -i 17 -k RTR
+ -t 1.382112062 -s 0 -d 8 -p tcp -e 1540 -c 2 -a 0 -i 18 -k RTR 
- -t 1.382112062 -s 0 -d 8 -p tcp -e 1540 -c 2 -a 0 -i 18 -k RTR
h -t 1.382112062 -s 0 -d 8 -p tcp -e 1540 -c 2 -a 0 -i 18 -k RTR
+ -t 1.397758304 -s 8 -d 24 -p tcp -e 1540 -c 2 -a 0 -i 10 -k RTR 
- -t 1.397758304 -s 8 -d 24 -p tcp -e 1540 -c 2 -a 0 -i 10 -k RTR
h -t 1.397758304 -s 8 -d 24 -p tcp -e 1540 -c 2 -a 0 -i 10 -k RTR
+ -t 1.411725294 -s 8 -d 24 -p tcp -e 1540 -c 2 -a 0 -i 12 -k RTR 
- -t 1.411725294 -s 8 -d 24 -p tcp -e 1540 -c 2 -a 0 -i 12 -k RTR
h -t 1.411725294 -s 8 -d 24 -p tcp -e 1540 -c 2 -a 0 -i 12 -k RTR
+ -t 1.426010781 -s 24 -d 13 -p tcp -e 1540 -c 2 -a 0 -i 10 -k RTR 
- -t 1.426010781 -s 24 -d 13 -p tcp -e 1540 -c 2 -a 0 -i 10 -k RTR
h -t 1.426010781 -s 24 -d 13 -p tcp -e 1540 -c 2 -a 0 -i 10 -k RTR
+ -t 1.439876761 -s 24 -d 13 -p tcp -e 1540 -c 2 -a 0 -i 12 -k RTR 
- -t 1.439876761 -s 24 -d 13 -p tcp -e 1540 -c 2 -a 0 -i 12 -k RTR
h -t 1.439876761 -s 24 -d 13 -p tcp -e 1540 -c 2 -a 0 -i 12 -k RTR
+ -t 1.454148059 -s 8 -d 24 -p tcp -e 1540 -c 2 -a 0 -i 13 -k RTR 
- -t 1.454148059 -s 8 -d 24 -p tcp -e 1540 -c 2 -a 0 -i 13 -k RTR
h -t 1.454148059 -s 8 -d 24 -p tcp -e 1540 -c 2 -a 0 -i 13 -k RTR
+ -t 1.468013542 -s 24 -d 13 -p tcp -e 1540 -c 2 -a 0 -i 13 -k RTR 
- -t 1.468013542 -s 24 -d 13 -p tcp -e 1540 -c 2 -a 0 -i 13 -k RTR
h -t 1.468013542 -s 24 -d 13 -p tcp -e 1540 -c 2 -a 0 -i 13 -k RTR
+ -t 1.481899798 -s 13 -d 4 -p tcp -e 1540 -c 2 -a 0 -i 10 -k RTR 
- -t 1.481899798 -s 13 -d 4 -p tcp -e 1540 -c 2 -a 0 -i 10 -k RTR
h -t 1.481899798 -s 13 -d 4 -p tcp -e 1540 -c 2 -a 0 -i 10 -k RTR
r -t 1.495805467 -s 4 -d 4 -p tcp -e 1540 -c 2 -a 0 -i 10 -k AGT
+ -t 1.495805467 -s 4 -d -1 -p ack -e 40 -c 2 -a 0 -i 19 -k AGT 
- -t 1.495805467 -s 4 -d -1 -p ack -e 40 -c 2 -a 0 -i 19 -k AGT
h -t 1.495805467 -s 4 -d -1 -p ack -e 40 -c 2 -a 0 -i 19 -k AGT
+ -t 1.495805467 -s 4 -d 13 -p ack -e 40 -c 2 -a 0 -i 19 -k RTR 
- -t 1.495805467 -s 4 -d 13 -p ack -e 40 -c 2 -a 0 -i 19 -k RTR
h -t 1.495805467 -s 4 -d 13 -p ack -e 40 -c 2 -a 0 -i 19 -k RTR
+ -t 1.498791137 -s 13 -d 24 -p ack -e 40 -c 2 -a 0 -i 19 -k RTR 
- -t 1.498791137 -s 13 -d 24 -p ack -e 40 -c 2 -a 0 -i 19 -k RTR
h -t 1.498791137 -s 13 -d 24 -p ack -e 40 -c 2 -a 0 -i 19 -k RTR
+ -t 1.500657390 -s 24 -d 8 -p ack -e 40 -c 2 -a 0 -i 19 -k RTR 
- -t 1.500657390 -s 24 -d 8 -p ack -e 40 -c 2 -a 0 -i 19 -k RTR
h -t 1.500657390 -s 24 -d 8 -p ack -e 40 -c 2 -a 0 -i 19 -k RTR
+ -t 1.514963643 -s 13 -d 4 -p tcp -e 1540 -c 2 -a 0 -i 12 -k RTR 
- -t 1.514963643 -s 13 -d 4 -p tcp -e 1540 -c 2 -a 0 -i 12 -k RTR
h -t 1.514963643 -s 13 -d 4 -p tcp -e 1540 -c 2 -a 0 -i 12 -k RTR
r -t 1.528849313 -s 4 -d 4 -p tcp -e 1540 -c 2 -a 0 -i 12 -k AGT
+ -t 1.528849313 -s 4 -d -1 -p ack -e 40 -c 2 -a 0 -i 20 -k AGT 
- -t 1.528849313 -s 4 -d -1 -p ack -e 40 -c 2 -a 0 -i 20 -k AGT
h -t 1.528849313 -s 4 -d -1 -p ack -e 40 -c 2 -a 0 -i 20 -k AGT
+ -t 1.528849313 -s 4 -d 13 -p ack -e 40 -c 2 -a 0 -i 20 -k RTR 