M 1.00000 0 (369.00, 520.00, 0.00), (490.00, 699.00), 2.00
M 1.00000 1 (885.00, 526.00, 0.00), (922.00, 207.00), 1.00
M 1.00000 2 (729.00, 340.00, 0.00), (990.00, 814.00), 3.00
M 1.00000 3 (1008.00, 280.00, 0.00), (143.00, 673.00), 10.00
M 1.00000 4 (798.00, 39.00, 0.00), (62.00, 438.00), 2.00
M 1.00000 5 (602.00, 383.00, 0.00), (986.00, 136.00), 2.00
M 1.00000 6 (402.00, 214.00, 0.00), (542.00, 742.00), 2.00
M 1.00000 7 (857.00, 514.00, 0.00), (315.00, 286.00), 2.00
M 1.00000 8 (389.00, 297.00, 0.00), (769.00, 362.00), 9.00
M 1.00000 9 (329.00, 877.00, 0.00), (396.00, 482.00), 9.00
M 1.00000 10 (819.00, 940.00, 0.00), (508.00, 501.00), 7.00
M 1.00000 11 (906.00, 742.00, 0.00), (607.00, 426.00), 6.00
M 1.00000 12 (833.00, 738.00, 0.00), (386.00, 143.00), 1.00
M 1.00000 13 (631.00, 43.00, 0.00), (527.00, 573.00), 7.00
M 1.00000 14 (249.00, 1008.00, 0.00), (838.00, 479.00), 9.00
M 1.00000 15 (859.00, 304.00, 0.00), (176.00, 240.00), 1.00
M 1.00000 16 (96.00, 515.00, 0.00), (705.00, 735.00), 3.00
M 1.00000 17 (175.00, 148.00, 0.00), (216.00, 354.00), 8.00
M 1.00000 18 (988.00, 512.00, 0.00), (955.00, 510.00), 2.00
M 1.00000 19 (985.00, 255.00, 0.00), (521.00, 573.00), 4.00
M 1.00000 20 (183.00, 973.00, 0.00), (161.00, 831.00), 7.00
M 1.00000 21 (49.00, 785.00, 0.00), (537.00, 646.00), 6.00
M 1.00000 22 (806.00, 85.00, 0.00), (714.00, 400.00), 10.00
M 1.00000 23 (518.00, 780.00, 0.00), (281.00, 988.00), 9.00
M 1.00000 24 (533.00, 249.00, 0.00), (765.00, 712.00), 2.00
s 1.000000000 _0_ AGT  --- 0 tcp 40 [0 0 0 0] ------- [0:0 4:0 32 0] [0 0] 0 0
r 1.000000000 _0_ RTR  --- 0 tcp 40 [0 0 0 0] ------- [0:0 4:0 32 0] [0 0] 0 0
s 1.000000000 _0_ RTR  --- 0 AODV 48 [0 0 0 0] ------- [0:255 -1:255 30 0] [0x2 1 1 [4 0] [0 4]] (REQUEST)
r 1.000988746 _8_ RTR  --- 0 AODV 48 [0 ffffffff 0 800] ------- [0:255 -1:255 30 0] [0x2 1 1 [4 0] [0 4]] (REQUEST)
s 1.001869973 _8_ RTR  --- 0 AODV 48 [0 ffffffff 0 800] ------- [8:255 -1:255 29 0] [0x2 2 1 [4 0] [0 4]] (REQUEST)
r 1.003138253 _6_ RTR  --- 0 AODV 48 [0 ffffffff 8 800] ------- [8:255 -1:255 29 0] [0x2 2 1 [4 0] [0 4]] (REQUEST)
r 1.003138479 _24_ RTR  --- 0 AODV 48 [0 ffffffff 8 800] ------- [8:255 -1:255 29 0] [0x2 2 1 [4 0] [0 4]] (REQUEST)
r 1.003138719 _0_ RTR  --- 0 AODV 48 [0 ffffffff 8 800] ------- [8:255 -1:255 29 0] [0x2 2 1 [4 0] [0 4]] (REQUEST)
r 1.003138739 _5_ RTR  --- 0 AODV 48 [0 ffffffff 8 800] ------- [8:255 -1:255 29 0] [0x2 2 1 [4 0] [0 4]] (REQUEST)
s 1.005484756 _5_ RTR  --- 0 AODV 48 [0 ffffffff 8 800] ------- [5:255 -1:255 28 0] [0x2 3 1 [4 0] [0 4]] (REQUEST)
s 1.006267871 _6_ RTR  --- 0 AODV 48 [0 ffffffff 8 800] ------- [6:255 -1:255 28 0] [0x2 3 1 [4 0] [0 4]] (REQUEST)
r 1.006793203 _2_ RTR  --- 0 AODV 48 [0 ffffffff 5 800] ------- [5:255 -1:255 28 0] [0x2 3 1 [4 0] [0 4]] (REQUEST)
r 1.006793259 _24_ RTR  --- 0 AODV 48 [0 ffffffff 5 800] ------- [5:255 -1:255 28 0] [0x2 3 1 [4 0] [0 4]] (REQUEST)
r 1.006793522 _8_ RTR  --- 0 AODV 48 [0 ffffffff 5 800] ------- [5:255 -1:255 28 0] [0x2 3 1 [4 0] [0 4]] (REQUEST)
r 1.008315909 _8_ RTR  --- 0 AODV 48 [0 ffffffff 6 800] ------- [6:255 -1:255 28 0] [0x2 3 1 [4 0] [0 4]] (REQUEST)
r 1.008316081 _24_ RTR  --- 0 AODV 48 [0 ffffffff 6 800] ------- [6:255 -1:255 28 0] [0x2 3 1 [4 0] [0 4]] (REQUEST)
r 1.008316417 _17_ RTR  --- 0 AODV 48 [0 ffffffff 6 800] ------- [6:255 -1:255 28 0] [0x2 3 1 [4 0] [0 4]] (REQUEST)
s 1.008434657 _2_ RTR  --- 0 AODV 48 [0 ffffffff 5 800] ------- [2:255 -1:255 27 0] [0x2 4 1 [4 0] [0 4]] (REQUEST)
r 1.009939244 _5_ RTR  --- 0 AODV 48 [0 ffffffff 2 800] ------- [2:255 -1:255 27 0] [0x2 4 1 [4 0] [0 4]] (REQUEST)
r 1.009939247 _15_ RTR  --- 0 AODV 48 [0 ffffffff 2 800] ------- [2:255 -1:255 27 0] [0x2 4 1 [4 0] [0 4]] (REQUEST)
r 1.009939517 _7_ RTR  --- 0 AODV 48 [0 ffffffff 2 800] ------- [2:255 -1:255 27 0] [0x2 4 1 [4 0] [0 4]] (REQUEST)
r 1.009939517 _24_ RTR  --- 0 AODV 48 [0 ffffffff 2 800] ------- [2:255 -1:255 27 0] [0x2 4 1 [4 0] [0 4]] (REQUEST)
r 1.009939606 _1_ RTR  --- 0 AODV 48 [0 ffffffff 2 800] ------- [2:255 -1:255 27 0] [0x2 4 1 [4 0] [0 4]] (REQUEST)
s 1.010880995 _1_ RTR  --- 0 AODV 48 [0 ffffffff 2 800] ------- [1:255 -1:255 26 0] [0x2 5 1 [4 0] [0 4]] (REQUEST)
s 1.011303239 _24_ RTR  --- 0 AODV 48 [0 ffffffff 8 800] ------- [24:255 -1:255 28 0] [0x2 3 1 [4 0] [0 4]] (REQUEST)
s 1.011687570 _7_ RTR  --- 0 AODV 48 [0 ffffffff 2 800] ------- [7:255 -1:255 26 0] [0x2 5 1 [4 0] [0 4]] (REQUEST)
r 1.012149096 _7_ RTR  --- 0 AODV 48 [0 ffffffff 1 800] ------- [1:255 -1:255 26 0] [0x2 5 1 [4 0] [0 4]] (REQUEST)
r 1.012149341 _18_ RTR  --- 0 AODV 48 [0 ffffffff 1 800] ------- [1:255 -1:255 26 0] [0x2 5 1 [4 0] [0 4]] (REQUEST)
r 1.012149718 _11_ RTR  --- 0 AODV 48 [0 ffffffff 1 800] ------- [1:255 -1:255 26 0] [0x2 5 1 [4 0] [0 4]] (REQUEST)
r 1.012149722 _12_ RTR  --- 0 AODV 48 [0 ffffffff 1 800] ------- [1:255 -1:255 26 0] [0x2 5 1 [4 0] [0 4]] (REQUEST)
r 1.012149740 _15_ RTR  --- 0 AODV 48 [0 ffffffff 1 800] ------- [1:255 -1:255 26 0] [0x2 5 1 [4 0] [0 4]] (REQUEST)
r 1.012149804 _2_ RTR  --- 0 AODV 48 [0 ffffffff 1 800] ------- [1:255 -1:255 26 0] [0x2 5 1 [4 0] [0 4]] (REQUEST)
r 1.013267198 _1_ RTR  --- 0 AODV 48 [0 ffffffff 7 800] ------- [7:255 -1:255 26 0] [0x2 5 1 [4 0] [0 4]] (REQUEST)
r 1.013267533 _18_ RTR  --- 0 AODV 48 [0 ffffffff 7 800] ------- [7:255 -1:255 26 0] [0x2 5 1 [4 0] [0 4]] (REQUEST)
r 1.013267796 _15_ RTR  --- 0 AODV 48 [0 ffffffff 7 800] ------- [7:255 -1:255 26 0] [0x2 5 1 [4 0] [0 4]] (REQUEST)
r 1.013267816 _2_ RTR  --- 0 AODV 48 [0 ffffffff 7 800] ------- [7:255 -1:255 26 0] [0x2 5 1 [4 0] [0 4]] (REQUEST)
r 1.013267847 _12_ RTR  --- 0 AODV 48 [0 ffffffff 7 800] ------- [7:255 -1:255 26 0] [0x2 5 1 [4 0] [0 4]] (REQUEST)
r 1.013267874 _11_ RTR  --- 0 AODV 48 [0 ffffffff 7 800] ------- [7:255 -1:255 26 0] [0x2 5 1 [4 0] [0 4]] (REQUEST)
s 1.014175814 _15_ RTR  --- 0 AODV 48 [0 ffffffff 2 800] ------- [15:255 -1:255 26 0] [0x2 5 1 [4 0] [0 4]] (REQUEST)
s 1.014717093 _17_ RTR  --- 0 AODV 48 [0 ffffffff 6 800] ------- [17:255 -1:255 27 0] [0x2 4 1 [4 0] [0 4]] (REQUEST)
r 1.014730943 _6_ RTR  --- 0 AODV 48 [0 ffffffff 18 800] ------- [24:255 -1:255 28 0] [0x2 3 1 [4 0] [0 4]] (REQUEST)
r 1.014730994 _5_ RTR  --- 0 AODV 48 [0 ffffffff 18 800] ------- [24:255 -1:255 28 0] [0x2 3 1 [4 0] [0 4]] (REQUEST)
r 1.014730997 _8_ RTR  --- 0 AODV 48 [0 ffffffff 18 800] ------- [24:255 -1:255 28 0] [0x2 3 1 [4 0] [0 4]] (REQUEST)
r 1.014731212 _2_ RTR  --- 0 AODV 48 [0 ffffffff 18 800] ------- [24:255 -1:255 28 0] [0x2 3 1 [4 0] [0 4]] (REQUEST)
r 1.014731252 _13_ RTR  --- 0 AODV 48 [0 ffffffff 18 800] ------- [24:255 -1:255 28 0] [0x2 3 1 [4 0] [0 4]] (REQUEST)
r 1.016034519 _6_ RTR  --- 0 AODV 48 [0 ffffffff 11 800] ------- [17:255 -1:255 27 0] [0x2 4 1 [4 0] [0 4]] (REQUEST)
r 1.016394043 _2_ RTR  --- 0 AODV 48 [0 ffffffff f 800] ------- [15:255 -1:255 26 0] [0x2 5 1 [4 0] [0 4]] (REQUEST)
r 1.016394044 _19_ RTR  --- 0 AODV 48 [0 ffffffff f 800] ------- [15:255 -1:255 26 0] [0x2 5 1 [4 0] [0 4]] (REQUEST)
r 1.016394096 _3_ RTR  --- 0 AODV 48 [0 ffffffff f 800] ------- [15:255 -1:255 26 0] [0x2 5 1 [4 0] [0 4]] (REQUEST)
r 1.016394293 _7_ RTR  --- 0 AODV 48 [0 ffffffff f 800] ------- [15:255 -1:255 26 0] [0x2 5 1 [4 0] [0 4]] (REQUEST)
r 1.016394338 _1_ RTR  --- 0 AODV 48 [0 ffffffff f 800] ------- [15:255 -1:255 26 0] [0x2 5 1 [4 0] [0 4]] (REQUEST)
r 1.016394344 _22_ RTR  --- 0 AODV 48 [0 ffffffff f 800] ------- [15:255 -1:255 26 0] [0x2 5 1 [4 0] [0 4]] (REQUEST)
r 1.016394409 _18_ RTR  --- 0 AODV 48 [0 ffffffff f 800] ------- [15:255 -1:255 26 0] [0x2 5 1 [4 0] [0 4]] (REQUEST)
s 1.016810877 _11_ RTR  --- 0 AODV 48 [0 ffffffff 1 800] ------- [11:255 -1:255 25 0] [0x2 6 1 [4 0] [0 4]] (REQUEST)
s 1.017143508 _13_ RTR  --- 0 AODV 48 [0 ffffffff 18 800] ------- [13:255 -1:255 27 0] [0x2 4 1 [4 0] [0 4]] (REQUEST)
s 1.017335829 _18_ RTR  --- 0 AODV 48 [0 ffffffff 1 800] ------- [18:255 -1:255 25 0] [0x2 6 1 [4 0] [0 4]] (REQUEST)
s 1.017486329 _22_ RTR  --- 0 AODV 48 [0 ffffffff f 800] ------- [22:255 -1:255 25 0] [0x2 6 1 [4 0] [0 4]] (REQUEST)
r 1.017959121 _12_ RTR  --- 0 AODV 48 [0 ffffffff b 800] ------- [11:255 -1:255 25 0] [0x2 6 1 [4 0] [0 4]] (REQUEST)
r 1.017959598 _10_ RTR  --- 0 AODV 48 [0 ffffffff b 800] ------- [11:255 -1:255 25 0] [0x2 6 1 [4 0] [0 4]] (REQUEST)
r 1.017959601 _1_ RTR  --- 0 AODV 48 [0 ffffffff b 800] ------- [11:255 -1:255 25 0] [0x2 6 1 [4 0] [0 4]] (REQUEST)
r 1.017959654 _7_ RTR  --- 0 AODV 48 [0 ffffffff b 800] ------- [11:255 -1:255 25 0] [0x2 6 1 [4 0] [0 4]] (REQUEST)
r 1.017959691 _18_ RTR  --- 0 AODV 48 [0 ffffffff b 800] ------- [11:255 -1:255 25 0] [0x2 6 1 [4 0] [0 4]] (REQUEST)
r 1.018192065 _4_ RTR  --- 0 AODV 48 [0 ffffffff d 800] ------- [13:255 -1:255 27 0] [0x2 4 1 [4 0] [0 4]] (REQUEST)
s 1.018192065 _4_ RTR  --- 0 AODV 44 [0 0 0 0] ------- [4:255 0:255 30 13] [0x4 1 [4 4] 10.000000] (REPLY)
r 1.018192108 _22_ RTR  --- 0 AODV 48 [0 ffffffff d 800] ------- [13:255 -1:255 27 0] [0x2 4 1 [4 0] [0 4]] (REQUEST)
r 1.018192268 _24_ RTR  --- 0 AODV 48 [0 ffffffff d 800] ------- [13:255 -1:255 27 0] [0x2 4 1 [4 0] [0 4]] (REQUEST)
s 1.019072791 _12_ RTR  --- 0 AODV 48 [0 ffffffff 1 800] ------- [12:255 -1:255 25 0] [0x2 6 1 [4 0] [0 4]] (REQUEST)
s 1.019079911 _10_ RTR  --- 0 AODV 48 [0 ffffffff b 800] ------- [10:255 -1:255 24 0] [0x2 7 1 [4 0] [0 4]] (REQUEST)
r 1.020058377 _4_ RTR  --- 0 AODV 48 [0 ffffffff 16 800] ------- [22:255 -1:255 25 0] [0x2 6 1 [4 0] [0 4]] (REQUEST)
r 1.020058821 _13_ RTR  --- 0 AODV 48 [0 ffffffff 16 800] ------- [22:255 -1:255 25 0] [0x2 6 1 [4 0] [0 4]] (REQUEST)
r 1.020058971 _15_ RTR  --- 0 AODV 48 [0 ffffffff 16 800] ------- [22:255 -1:255 25 0] [0x2 6 1 [4 0] [0 4]] (REQUEST)
r 1.020059043 _19_ RTR  --- 0 AODV 48 [0 ffffffff 16 800] ------- [22:255 -1:255 25 0] [0x2 6 1 [4 0] [0 4]] (REQUEST)
r 1.020208586 _12_ RTR  --- 0 AODV 48 [0 ffffffff a 800] ------- [10:255 -1:255 24 0] [0x2 7 1 [4 0] [0 4]] (REQUEST)
r 1.020208632 _11_ RTR  --- 0 AODV 48 [0 ffffffff a 800] ------- [10:255 -1:255 24 0] [0x2 7 1 [4 0] [0 4]] (REQUEST)
s 1.020449287 _3_ RTR  --- 0 AODV 48 [0 ffffffff f 800] ------- [3:255 -1:255 25 0] [0x2 6 1 [4 0] [0 4]] (REQUEST)
r 1.021206829 _11_ RTR  --- 0 AODV 48 [0 ffffffff c 800] ------- [12:255 -1:255 25 0] [0x2 6 1 [4 0] [0 4]] (REQUEST)
r 1.021207261 _10_ RTR  --- 0 AODV 48 [0 ffffffff c 800] ------- [12:255 -1:255 25 0] [0x2 6 1 [4 0] [0 4]] (REQUEST)
r 1.021207314 _1_ RTR  --- 0 AODV 48 [0 ffffffff c 800] ------- [12:255 -1:255 25 0] [0x2 6 1 [4 0] [0 4]] (REQUEST)
r 1.021207337 _7_ RTR  --- 0 AODV 48 [0 ffffffff c 800] ------- [12:255 -1:255 25 0] [0x2 6 1 [4 0] [0 4]] (REQUEST)
r 1.022619890 _11_ RTR  --- 0 AODV 48 [0 ffffffff 12 800] ------- [18:255 -1:255 25 0] [0x2 6 1 [4 0] [0 4]] (REQUEST)
r 1.023881965 _19_ RTR  --- 0 AODV 48 [0 ffffffff 3 800] ------- [3:255 -1:255 25 0] [0x2 6 1 [4 0] [0 4]] (REQUEST)
r 1.023882355 _15_ RTR  --- 0 AODV 48 [0 ffffffff 3 800] ------- [3:255 -1:255 25 0] [0x2 6 1 [4 0] [0 4]] (REQUEST)
r 1.023882628 _18_ RTR  --- 0 AODV 48 [0 ffffffff 3 800] ------- [3:255 -1:255 25 0] [0x2 6 1 [4 0] [0 4]] (REQUEST)
s 1.025443499 _19_ RTR  --- 0 AODV 48 [0 ffffffff f 800] ------- [19:255 -1:255 25 0] [0x2 6 1 [4 0] [0 4]] (REQUEST)
r 1.026110588 _13_ RTR  --- 0 AODV 44 [13a d 4 800] ------- [4:255 0:255 30 13] [0x4 1 [4 4] 10.000000] (REPLY)
f 1.026110588 _13_ RTR  --- 0 AODV 44 [13a d 4 800] ------- [4:255 0:255 29 24] [0x4 2 [4 4] 10.000000] (REPLY)
r 1.030742907 _24_ RTR  --- 0 AODV 44 [13a 18 d 800] ------- [4:255 0:255 29 24] [0x4 2 [4 4] 10.000000] (REPLY)
f 1.030742907 _24_ RTR  --- 0 AODV 44 [13a 18 d 800] ------- [4:255 0:255 28 8] [0x4 3 [4 4] 10.000000] (REPLY)
r 1.034100537 _3_ RTR  --- 0 AODV 48 [0 ffffffff 13 800] ------- [19:255 -1:255 25 0] [0x2 6 1 [4 0] [0 4]] (REQUEST)
r 1.036129446 _8_ RTR  --- 0 AODV 44 [13a 8 18 800] ------- [4:255 0:255 28 8] [0x4 3 [4 4] 10.000000] (REPLY)
f 1.036129446 _8_ RTR  --- 0 AODV 44 [13a 8 18 800] ------- [4:255 0:255 27 0] [0x4 4 [4 4] 10.000000] (REPLY)
r 1.041121671 _0_ RTR  --- 0 AODV 44 [13a 0 8 800] ------- [4:255 0:255 27 0] [0x4 4 [4 4] 10.000000] (REPLY)
s 1.041121671 _0_ RTR  --- 0 tcp 40 [0 0 0 0] ------- [0:0 4:0 30 8] [0 0] 0 0
r 1.043207910 _8_ RTR  --- 0 tcp 40 [13a 8 0 800] ------- [0:0 4:0 30 8] [0 0] 1 0
f 1.043207910 _8_ RTR  --- 0 tcp 40 [13a 8 0 800] ------- [0:0 4:0 29 24] [0 0] 1 0
r 1.045093424 _24_ RTR  --- 0 tcp 40 [13a 18 8 800] ------- [0:0 4:0 29 24] [0 0] 2 0
f 1.045093424 _24_ RTR  --- 0 tcp 40 [13a 18 8 800] ------- [0:0 4:0 28 13] [0 0] 2 0
r 1.047519703 _13_ RTR  --- 0 tcp 40 [13a d 18 800] ------- [0:0 4:0 28 13] [0 0] 3 0
f 1.047519703 _13_ RTR  --- 0 tcp 40 [13a d 18 800] ------- [0:0 4:0 27 4] [0 0] 3 0
r 1.049405373 _4_ AGT  --- 0 tcp 40 [13a 4 d 800] ------- [0:0 4:0 27 4] [0 0] 4 0
s 1.049405373 _4_ AGT  --- 1 ack 40 [0 0 0 0] ------- [4:0 0:0 32 0] [0 0] 0 0
r 1.049405373 _4_ RTR  --- 1 ack 40 [0 0 0 0] ------- [4:0 0:0 32 0] [0 0] 0 0
s 1.049405373 _4_ RTR  --- 1 ack 40 [0 0 0 0] ------- [4:0 0:0 30 13] [0 0] 0 0
r 1.051351044 _13_ RTR  --- 1 ack 40 [13a d 4 800] ------- [4:0 0:0 30 13] [0 0] 1 0
f 1.051351044 _13_ RTR  --- 1 ack 40 [13a d 4 800] ------- [4:0 0:0 29 24] [0 0] 1 0
r 1.053677322 _24_ RTR  --- 1 ack 40 [13a 18 d 800] ------- [4:0 0:0 29 24] [0 0] 2 0
f 1.053677322 _24_ RTR  --- 1 ack 40 [13a 18 d 800] ------- [4:0 0:0 28 8] [0 0] 2 0
r 1.055602836 _8_ RTR  --- 1 ack 40 [13a 8 18 800] ------- [4:0 0:0 28 8] [0 0] 3 0
f 1.055602836 _8_ RTR  --- 1 ack 40 [13a 8 18 800] ------- [4:0 0:0 27 0] [0 0] 3 0
r 1.057729075 _0_ AGT  --- 1 ack 40 [13a 0 8 800] ------- [4:0 0:0 27 0] [0 0] 4 0
s 1.057729075 _0_ AGT  --- 2 tcp 1540 [0 0 0 0] ------- [0:0 4:0 32 0] [1 0] 0 0
r 1.057729075 _0_ RTR  --- 2 tcp 1540 [0 0 0 0] ------- [0:0 4:0 32 0] [1 0] 0 0
s 1.057729075 _0_ AGT  --- 3 tcp 1540 [0 0 0 0] ------- [0:0 4:0 32 0] [2 0] 0 0
r 1.057729075 _0_ RTR  --- 3 tcp 1540 [0 0 0 0] ------- [0:0 4:0 32 0] [2 0] 0 0
s 1.057729075 _0_ RTR  --- 2 tcp 1540 [0 0 0 0] ------- [0:0 4:0 30 8] [1 0] 0 0
s 1.057729075 _0_ RTR  --- 3 tcp 1540 [0 0 0 0] ------- [0:0 4:0 30 8] [2 0] 0 0
r 1.071855315 _8_ RTR  --- 2 tcp 1540 [13a 8 0 800] ------- [0:0 4:0 30 8] [1 0] 1 0
f 1.071855315 _8_ RTR  --- 2 tcp 1540 [13a 8 0 800] ------- [0:0 4:0 29 24] [1 0] 1 0
r 1.086708301 _8_ RTR  --- 3 tcp 1540 [13a 8 0 800] ------- [0:0 4:0 30 8] [2 0] 1 0
f 1.086708301 _8_ RTR  --- 3 tcp 1540 [13a 8 0 800] ------- [0:0 4:0 29 24] [2 0] 1 0
r 1.100953812 _24_ RTR  --- 2 tcp 1540 [13a 18 8 800] ------- [0:0 4:0 29 24] [1 0] 2 0
f 1.100953812 _24_ RTR  --- 2 tcp 1540 [13a 18 8 800] ------- [0:0 4:0 28 13] [1 0] 2 0
r 1.114940087 _13_ RTR  --- 2 tcp 1540 [13a d 18 800] ------- [0:0 4:0 28 13] [1 0] 3 0
f 1.114940087 _13_ RTR  --- 2 tcp 1540 [13a d 18 800] ------- [0:0 4:0 27 4] [1 0] 3 0
r 1.128885758 _4_ AGT  --- 2 tcp 1540 [13a 4 d 800] ------- [0:0 4:0 27 4] [1 0] 4 0
s 1.128885758 _4_ AGT  --- 4 ack 40 [0 0 0 0] ------- [4:0 0:0 32 0] [1 0] 0 0
r 1.128885758 _4_ RTR  --- 4 ack 40 [0 0 0 0] ------- [4:0 0:0 32 0] [1 0] 0 0
s 1.128885758 _4_ RTR  --- 4 ack 40 [0 0 0 0] ------- [4:0 0:0 30 13] [1 0] 0 0
r 1.130831428 _13_ RTR  --- 4 ack 40 [13a d 4 800] ------- [4:0 0:0 30 13] [1 0] 1 0
f 1.130831428 _13_ RTR  --- 4 ack 40 [13a d 4 800] ------- [4:0 0:0 29 24] [1 0] 1 0
r 1.132717702 _24_ RTR  --- 4 ack 40 [13a 18 d 800] ------- [4:0 0:0 29 24] [1 0] 2 0
f 1.132717702 _24_ RTR  --- 4 ack 40 [13a 18 d 800] ------- [4:0 0:0 28 8] [1 0] 2 0
r 1.134843209 _8_ RTR  --- 4 ack 40 [13a 8 18 800] ------- [4:0 0:0 28 8] [1 0] 3 0
f 1.134843209 _8_ RTR  --- 4 ack 40 [13a 8 18 800] ------- [4:0 0:0 27 0] [1 0] 3 0
r 1.148728717 _24_ RTR  --- 3 tcp 1540 [13a 18 8 800] ------- [0:0 4:0 29 24] [2 0] 2 0
f 1.148728717 _24_ RTR  --- 3 tcp 1540 [13a 18 8 800] ------- [0:0 4:0 28 13] [2 0] 2 0
r 1.162654990 _13_ RTR  --- 3 tcp 1540 [13a d 18 800] ------- [0:0 4:0 28 13] [2 0] 3 0
f 1.162654990 _13_ RTR  --- 3 tcp 1540 [13a d 18 800] ------- [0:0 4:0 27 4] [2 0] 3 0
r 1.176800660 _4_ AGT  --- 3 tcp 1540 [13a 4 d 800] ------- [0:0 4:0 27 4] [2 0] 4 0
s 1.176800660 _4_ AGT  --- 5 ack 40 [0 0 0 0] ------- [4:0 0:0 32 0] [2 0] 0 0
r 1.176800660 _4_ RTR  --- 5 ack 40 [0 0 0 0] ------- [4:0 0:0 32 0] [2 0] 0 0
s 1.176800660 _4_ RTR  --- 5 ack 40 [0 0 0 0] ------- [4:0 0:0 30 13] [2 0] 0 0
r 1.179126330 _13_ RTR  --- 5 ack 40 [13a d 4 800] ------- [4:0 0:0 30 13] [2 0] 1 0
f 1.179126330 _13_ RTR  --- 5 ack 40 [13a d 4 800] ------- [4:0 0:0 29 24] [2 0] 1 0
r 1.181112601 _24_ RTR  --- 5 ack 40 [13a 18 d 800] ------- [4:0 0:0 29 24] [2 0] 2 0
f 1.181112601 _24_ RTR  --- 5 ack 40 [13a 18 d 800] ------- [4:0 0:0 28 8] [2 0] 2 0
r 1.183149247 _0_ AGT  --- 4 ack 40 [13a 0 8 800] ------- [4:0 0:0 27 0] [1 0] 4 0
s 1.183149247 _0_ AGT  --- 6 tcp 1540 [0 0 0 0] ------- [0:0 4:0 32 0] [3 0] 0 0
r 1.183149247 _0_ RTR  --- 6 tcp 1540 [0 0 0 0] ------- [0:0 4:0 32 0] [3 0] 0 0
s 1.183149247 _0_ AGT  --- 7 tcp 1540 [0 0 0 0] ------- [0:0 4:0 32 0] [4 0] 0 0
r 1.183149247 _0_ RTR  --- 7 tcp 1540 [0 0 0 0] ------- [0:0 4:0 32 0] [4 0] 0 0
s 1.183149247 _0_ RTR  --- 6 tcp 1540 [0 0 0 0] ------- [0:0 4:0 30 8] [3 0] 0 0
s 1.183149247 _0_ RTR  --- 7 tcp 1540 [0 0 0 0] ------- [0:0 4:0 30 8] [4 0] 0 0
r 1.196975488 _8_ RTR  --- 6 tcp 1540 [13a 8 0 800] ------- [0:0 4:0 30 8] [3 0] 1 0
f 1.196975488 _8_ RTR  --- 6 tcp 1540 [13a 8 0 800] ------- [0:0 4:0 29 24] [3 0] 1 0
r 1.210860991 _24_ RTR  --- 6 tcp 1540 [13a 18 8 800] ------- [0:0 4:0 29 24] [3 0] 2 0
f 1.210860991 _24_ RTR  --- 6 tcp 1540 [13a 18 8 800] ------- [0:0 4:0 28 13] [3 0] 2 0
r 1.212746492 _8_ RTR  --- 5 ack 40 [13a 8 18 800] ------- [4:0 0:0 28 8] [2 0] 3 0
f 1.212746492 _8_ RTR  --- 5 ack 40 [13a 8 18 800] ------- [4:0 0:0 27 0] [2 0] 3 0
r 1.226993262 _13_ RTR  --- 6 tcp 1540 [13a d 18 800] ------- [0:0 4:0 28 13] [3 0] 3 0
f 1.226993262 _13_ RTR  --- 6 tcp 1540 [13a d 18 800] ------- [0:0 4:0 27 4] [3 0] 3 0
r 1.240838932 _4_ AGT  --- 6 tcp 1540 [13a 4 d 800] ------- [0:0 4:0 27 4] [3 0] 4 0
s 1.240838932 _4_ AGT  --- 8 ack 40 [0 0 0 0] ------- [4:0 0:0 32 0] [3 0] 0 0
r 1.240838932 _4_ RTR  --- 8 ack 40 [0 0 0 0] ------- [4:0 0:0 32 0] [3 0] 0 0
s 1.240838932 _4_ RTR  --- 8 ack 40 [0 0 0 0] ------- [4:0 0:0 30 13] [3 0] 0 0
r 1.243564602 _13_ RTR  --- 8 ack 40 [13a d 4 800] ------- [4:0 0:0 30 13] [3 0] 1 0
f 1.243564602 _13_ RTR  --- 8 ack 40 [13a d 4 800] ------- [4:0 0:0 29 24] [3 0] 1 0
r 1.245610870 _24_ RTR  --- 8 ack 40 [13a 18 d 800] ------- [4:0 0:0 29 24] [3 0] 2 0
f 1.245610870 _24_ RTR  --- 8 ack 40 [13a 18 d 800] ------- [4:0 0:0 28 8] [3 0] 2 0
r 1.247627516 _0_ AGT  --- 5 ack 40 [13a 0 8 800] ------- [4:0 0:0 27 0] [2 0] 4 0
s 1.247627516 _0_ AGT  --- 9 tcp 1540 [0 0 0 0] ------- [0:0 4:0 32 0] [5 0] 0 0
r 1.247627516 _0_ RTR  --- 9 tcp 1540 [0 0 0 0] ------- [0:0 4:0 32 0] [5 0] 0 0
s 1.247627516 _0_ AGT  --- 10 tcp 1540 [0 0 0 0] ------- [0:0 4:0 32 0] [6 0] 0 0
r 1.247627516 _0_ RTR  --- 10 tcp 1540 [0 0 0 0] ------- [0:0 4:0 32 0] [6 0] 0 0
s 1.247627516 _0_ RTR  --- 9 tcp 1540 [0 0 0 0] ------- [0:0 4:0 30 8] [5 0] 0 0
s 1.247627516 _0_ RTR  --- 10 tcp 1540 [0 0 0 0] ------- [0:0 4:0 30 8] [6 0] 0 0
r 1.261553757 _8_ RTR  --- 7 tcp 1540 [13a 8 0 800] ------- [0:0 4:0 30 8] [4 0] 1 0
f 1.261553757 _8_ RTR  --- 7 tcp 1540 [13a 8 0 800] ------- [0:0 4:0 29 24] [4 0] 1 0
r 1.263689563 _8_ RTR  --- 8 ack 40 [13a 8 18 800] ------- [4:0 0:0 28 8] [3 0] 3 0
f 1.263689563 _8_ RTR  --- 8 ack 40 [13a 8 18 800] ------- [4:0 0:0 27 0] [3 0] 3 0
r 1.277586361 _8_ RTR  --- 9 tcp 1540 [13a 8 0 800] ------- [0:0 4:0 30 8] [5 0] 1 0
f 1.277586361 _8_ RTR  --- 9 tcp 1540 [13a 8 0 800] ------- [0:0 4:0 29 24] [5 0] 1 0
r 1.291431857 _24_ RTR  --- 7 tcp 1540 [13a 18 8 800] ------- [0:0 4:0 29 24] [4 0] 2 0
f 1.291431857 _24_ RTR  --- 7 tcp 1540 [13a 18 8 800] ------- [0:0 4:0 28 13] [4 0] 2 0
r 1.305378122 _13_ RTR  --- 7 tcp 1540 [13a d 18 800] ------- [0:0 4:0 28 13] [4 0] 3 0
f 1.305378122 _13_ RTR  --- 7 tcp 1540 [13a d 18 800] ------- [0:0 4:0 27 4] [4 0] 3 0
r 1.319343792 _4_ AGT  --- 7 tcp 1540 [13a 4 d 800] ------- [0:0 4:0 27 4] [4 0] 4 0
s 1.319343792 _4_ AGT  --- 11 ack 40 [0 0 0 0] ------- [4:0 0:0 32 0] [4 0] 0 0
r 1.319343792 _4_ RTR  --- 11 ack 40 [0 0 0 0] ------- [4:0 0:0 32 0] [4 0] 0 0
s 1.319343792 _4_ RTR  --- 11 ack 40 [0 0 0 0] ------- [4:0 0:0 30 13] [4 0] 0 0
r 1.322588033 _0_ AGT  --- 8 ack 40 [13a 0 8 800] ------- [4:0 0:0 27 0] [3 0] 4 0
s 1.322588033 _0_ AGT  --- 12 tcp 1540 [0 0 0 0] ------- [0:0 4:0 32 0] [7 0] 0 0
r 1.322588033 _0_ RTR  --- 12 tcp 1540 [0 0 0 0] ------- [0:0 4:0 32 0] [7 0] 0 0
s 1.322588033 _0_ AGT  --- 13 tcp 1540 [0 0 0 0] ------- [0:0 4:0 32 0] [8 0] 0 0
r 1.322588033 _0_ RTR  --- 13 tcp 1540 [0 0 0 0] ------- [0:0 4:0 32 0] [8 0] 0 0
s 1.322588033 _0_ RTR  --- 12 tcp 1540 [0 0 0 0] ------- [0:0 4:0 30 8] [7 0] 0 0
s 1.322588033 _0_ RTR  --- 13 tcp 1540 [0 0 0 0] ------- [0:0 4:0 30 8] [8 0] 0 0
r 1.336954273 _24_ RTR  --- 9 tcp 1540 [13a 18 8 800] ------- [0:0 4:0 29 24] [5 0] 2 0
f 1.336954273 _24_ RTR  --- 9 tcp 1540 [13a 18 8 800] ------- [0:0 4:0 28 13] [5 0] 2 0
r 1.352112786 _13_ RTR  --- 9 tcp 1540 [13a d 18 800] ------- [0:0 4:0 28 13] [5 0] 3 0
f 1.352112786 _13_ RTR  --- 9 tcp 1540 [13a d 18 800] ------- [0:0 4:0 27 4] [5 0] 3 0
r 1.354408827 _13_ RTR  --- 11 ack 40 [13a d 4 800] ------- [4:0 0:0 30 13] [4 0] 1 0
f 1.354408827 _13_ RTR  --- 11 ack 40 [13a d 4 800] ------- [4:0 0:0 29 24] [4 0] 1 0
r 1.368358998 _4_ AGT  --- 9 tcp 1540 [13a 4 d 800] ------- [0:0 4:0 27 4] [5 0] 4 0
s 1.368358998 _4_ AGT  --- 14 ack 40 [0 0 0 0] ------- [4:0 0:0 32 0] [5 0] 0 0
r 1.368358998 _4_ RTR  --- 14 ack 40 [0 0 0 0] ------- [4:0 0:0 32 0] [5 0] 0 0
s 1.368358998 _4_ RTR  --- 14 ack 40 [0 0 0 0] ------- [4:0 0:0 30 13] [5 0] 0 0
r 1.370285815 _24_ RTR  --- 11 ack 40 [13a 18 d 800] ------- [4:0 0:0 29 24] [4 0] 2 0
f 1.370285815 _24_ RTR  --- 11 ack 40 [13a 18 d 800] ------- [4:0 0:0 28 8] [4 0] 2 0
r 1.372291305 _8_ RTR  --- 11 ack 40 [13a 8 18 800] ------- [4:0 0:0 28 8] [4 0] 3 0
f 1.372291305 _8_ RTR  --- 11 ack 40 [13a 8 18 800] ------- [4:0 0:0 27 0] [4 0] 3 0
r 1.374497547 _0_ AGT  --- 11 ack 40 [13a 0 8 800] ------- [4:0 0:0 27 0] [4 0] 4 0
s 1.374497547 _0_ AGT  --- 15 tcp 1540 [0 0 0 0] ------- [0:0 4:0 32 0] [9 0] 0 0
r 1.374497547 _0_ RTR  --- 15 tcp 1540 [0 0 0 0] ------- [0:0 4:0 32 0] [9 0] 0 0
s 1.374497547 _0_ AGT  --- 16 tcp 1540 [0 0 0 0] ------- [0:0 4:0 32 0] [10 0] 0 0
r 1.374497547 _0_ RTR  --- 16 tcp 1540 [0 0 0 0] ------- [0:0 4:0 32 0] [10 0] 0 0
s 1.374497547 _0_ RTR  --- 15 tcp 1540 [0 0 0 0] ------- [0:0 4:0 30 8] [9 0] 0 0
s 1.374497547 _0_ RTR  --- 16 tcp 1540 [0 0 0 0] ------- [0:0 4:0 30 8] [10 0] 0 0
r 1.376394070 _13_ RTR  --- 14 ack 40 [13a d 4 800] ------- [4:0 0:0 30 13] [5 0] 1 0
f 1.376394070 _13_ RTR  --- 14 ack 40 [13a d 4 800] ------- [4:0 0:0 29 24] [5 0] 1 0
r 1.378220331 _24_ RTR  --- 14 ack 40 [13a 18 d 800] ------- [4:0 0:0 29 24] [5 0] 2 0
f 1.378220331 _24_ RTR  --- 14 ack 40 [13a 18 d 800] ------- [4:0 0:0 28 8] [5 0] 2 0
r 1.380185820 _8_ RTR  --- 14 ack 40 [13a 8 18 800] ------- [4:0 0:0 28 8] [5 0] 3 0
f 1.380185820 _8_ RTR  --- 14 ack 40 [13a 8 18 800] ------- [4:0 0:0 27 0] [5 0] 3 0
r 1.382112062 _0_ AGT  --- 14 ack 40 [13a 0 8 800] ------- [4:0 0:0 27 0] [5 0] 4 0
s 1.382112062 _0_ AGT  --- 17 tcp 1540 [0 0 0 0] ------- [0:0 4:0 32 0] [11 0] 0 0
r 1.382112062 _0_ RTR  --- 17 tcp 1540 [0 0 0 0] ------- [0:0 4:0 32 0] [11 0] 0 0
s 1.382112062 _0_ AGT  --- 18 tcp 1540 [0 0 0 0] ------- [0:0 4:0 32 0] [12 0] 0 0
r 1.382112062 _0_ RTR  --- 18 tcp 1540 [0 0 0 0] ------- [0:0 4:0 32 0] [12 0] 0 0
s 1.382112062 _0_ RTR  --- 17 tcp 1540 [0 0 0 0] ------- [0:0 4:0 30 8] [11 0] 0 0
s 1.382112062 _0_ RTR  --- 18 tcp 1540 [0 0 0 0] ------- [0:0 4:0 30 8] [12 0] 0 0
r 1.397758304 _8_ RTR  --- 10 tcp 1540 [13a 8 0 800] ------- [0:0 4:0 30 8] [6 0] 1 0
f 1.397758304 _8_ RTR  --- 10 tcp 1540 [13a 8 0 800] ------- [0:0 4:0 29 24] [6 0] 1 0
r 1.411725294 _8_ RTR  --- 12 tcp 1540 [13a 8 0 800] ------- [0:0 4:0 30 8] [7 0] 1 0
f 1.411725294 _8_ RTR  --- 12 tcp 1540 [13a 8 0 800] ------- [0:0 4:0 29 24] [7 0] 1 0
r 1.426010781 _24_ RTR  --- 10 tcp 1540 [13a 18 8 800] ------- [0:0 4:0 29 24] [6 0] 2 0
f 1.426010781 _24_ RTR  --- 10 tcp 1540 [13a 18 8 800] ------- [0:0 4:0 28 13] [6 0] 2 0
r 1.439876761 _24_ RTR  --- 12 tcp 1540 [13a 18 8 800] ------- [0:0 4:0 29 24] [7 0] 2 0
f 1.439876761 _24_ RTR  --- 12 tcp 1540 [13a 18 8 800] ------- [0:0 4:0 28 13] [7 0] 2 0
r 1.454148059 _8_ RTR  --- 13 tcp 1540 [13a 8 0 800] ------- [0:0 4:0 30 8] [8 0] 1 0
f 1.454148059 _8_ RTR  --- 13 tcp 1540 [13a 8 0 800] ------- [0:0 4:0 29 24] [8 0] 1 0
r 1.468013542 _24_ RTR  --- 13 tcp 1540 [13a 18 8 800] ------- [0:0 4:0 29 24] [8 0] 2 0
f 1.468013542 _24_ RTR  --- 13 tcp 1540 [13a 18 8 800] ------- [0:0 4:0 28 13] [8 0] 2 0
r 1.481899798 _13_ RTR  --- 10 tcp 1540 [13a d 18 800] ------- [0:0 4:0 28 13] [6 0] 3 0
f 1.481899798 _13_ RTR  --- 10 tcp 1540 [13a d 18 800] ------- [0:0 4:0 27 4] [6 0] 3 0
r 1.495805467 _4_ AGT  --- 10 tcp 1540 [13a 4 d 800] ------- [0:0 4:0 27 4] [6 0] 4 0
s 1.495805467 _4_ AGT  --- 19 ack 40 [0 0 0 0] ------- [4:0 0:0 32 0] [6 0] 0 0
r 1.495805467 _4_ RTR  --- 19 ack 40 [0 0 0 0] ------- [4:0 0:0 32 0] [6 0] 0 0
s 1.495805467 _4_ RTR  --- 19 ack 40 [0 0 0 0] ------- [4:0 0:0 30 13] [6 0] 0 0
r 1.498791137 _13_ RTR  --- 19 ack 40 [13a d 4 800] ------- [4:0 0:0 30 13] [6 0] 1 0
f 1.498791137 _13_ RTR  --- 19 ack 40 [13a d 4 800] ------- [4:0 0:0 29 24] [6 0] 1 0
r 1.500657390 _24_ RTR  --- 19 ack 40 [13a 18 d 800] ------- [4:0 0:0 29 24] [6 0] 2 0
f 1.500657390 _24_ RTR  --- 19 ack 40 [13a 18 d 800] ------- [4:0 0:0 28 8] [6 0] 2 0
r 1.514963643 _13_ RTR  --- 12 tcp 1540 [13a d 18 800] ------- [0:0 4:0 28 13] [7 0] 3 0
f 1.514963643 _13_ RTR  --- 12 tcp 1540 [13a d 18 800] ------- [0:0 4:0 27 4] [7 0] 3 0
r 1.528849313 _4_ AGT  --- 12 tcp 1540 [13a 4 d 800] ------- [0:0 4:0 27 4] [7 0] 4 0
s 1.528849313 _4_ AGT  --- 20 ack 40 [0 0 0 0] ------- [4:0 0:0 32 0] [7 0] 0 0
r 1.528849313 _4_ RTR  --- 20 ack 40 [0 0 0 0] ------- [4:0 0:0 32 0] [7 0] 0 0
s 1.528849313 _4_ RTR  --- 20 ack 40 [0 0 0 0] ------- [4:0 0:0 30 13] [7 0] 0 0
r 1.545222689 _13_ RTR  --- 13 tcp 1540 [13a d 18 800] ------- [0:0 4:0 28 13] [8 0] 3 0
f 1.545222689 _13_ RTR  --- 13 tcp 1540 [13a d 18 800] ------- [0:0 4:0 27 4] [8 0] 3 0
r 1.547108915 _8_ RTR  --- 19 ack 40 [13a 8 18 800] ------- [4:0 0:0 28 8] [6 0] 3 0
f 1.547108915 _8_ RTR  --- 19 ack 40 [13a 8 18 800] ------- [4:0 0:0 27 0] [6 0] 3 0
r 1.549235159 _0_ AGT  --- 19 ack 40 [13a 0 8 800] ------- [4:0 0:0 27 0] [6 0] 4 0
s 1.549235159 _0_ AGT  --- 21 tcp 1540 [0 0 0 0] ------- [0:0 4:0 32 0] [13 0] 0 0
r 1.549235159 _0_ RTR  --- 21 tcp 1540 [0 0 0 0] ------- [0:0 4:0 32 0] [13 0] 0 0
s 1.549235159 _0_ AGT  --- 22 tcp 1540 [0 0 0 0] ------- [0:0 4:0 32 0] [14 0] 0 0
r 1.549235159 _0_ RTR  --- 22 tcp 1540 [0 0 0 0] ------- [0:0 4:0 32 0] [14 0] 0 0
s 1.549235159 _0_ RTR  --- 21 tcp 1540 [0 0 0 0] ------- [0:0 4:0 30 8] [13 0] 0 0
s 1.549235159 _0_ RTR  --- 22 tcp 1540 [0 0 0 0] ------- [0:0 4:0 30 8] [14 0] 0 0
r 1.551291677 _13_ RTR  --- 20 ack 40 [13a d 4 800] ------- [4:0 0:0 30 13] [7 0] 1 0
f 1.551291677 _13_ RTR  --- 20 ack 40 [13a d 4 800] ------- [4:0 0:0 29 24] [7 0] 1 0
r 1.565137346 _4_ AGT  --- 13 tcp 1540 [13a 4 d 800] ------- [0:0 4:0 27 4] [8 0] 4 0
s 1.565137346 _4_ AGT  --- 23 ack 40 [0 0 0 0] ------- [4:0 0:0 32 0] [8 0] 0 0
r 1.565137346 _4_ RTR  --- 23 ack 40 [0 0 0 0] ------- [4:0 0:0 32 0] [8 0] 0 0
s 1.565137346 _4_ RTR  --- 23 ack 40 [0 0 0 0] ------- [4:0 0:0 30 13] [8 0] 0 0
r 1.566984152 _24_ RTR  --- 20 ack 40 [13a 18 d 800] ------- [4:0 0:0 29 24] [7 0] 2 0
f 1.566984152 _24_ RTR  --- 20 ack 40 [13a 18 d 800] ------- [4:0 0:0 28 8] [7 0] 2 0
r 1.568929627 _8_ RTR  --- 20 ack 40 [13a 8 18 800] ------- [4:0 0:0 28 8] [7 0] 3 0
f 1.568929627 _8_ RTR  --- 20 ack 40 [13a 8 18 800] ------- [4:0 0:0 27 0] [7 0] 3 0
r 1.570835871 _0_ AGT  --- 20 ack 40 [13a 0 8 800] ------- [4:0 0:0 27 0] [7 0] 4 0
s 1.570835871 _0_ AGT  --- 24 tcp 1540 [0 0 0 0] ------- [0:0 4:0 32 0] [15 0] 0 0
r 1.570835871 _0_ RTR  --- 24 tcp 1540 [0 0 0 0] ------- [0:0 4:0 32 0] [15 0] 0 0
s 1.570835871 _0_ AGT  --- 25 tcp 1540 [0 0 0 0] ------- [0:0 4:0 32 0] [16 0] 0 0
r 1.570835871 _0_ RTR  --- 25 tcp 1540 [0 0 0 0] ------- [0:0 4:0 32 0] [16 0] 0 0
s 1.570835871 _0_ RTR  --- 24 tcp 1540 [0 0 0 0] ------- [0:0 4:0 30 8] [15 0] 0 0
s 1.570835871 _0_ RTR  --- 25 tcp 1540 [0 0 0 0] ------- [0:0 4:0 30 8] [16 0] 0 0
r 1.573152387 _13_ RTR  --- 23 ack 40 [13a d 4 800] ------- [4:0 0:0 30 13] [8 0] 1 0
f 1.573152387 _13_ RTR  --- 23 ack 40 [13a d 4 800] ------- [4:0 0:0 29 24] [8 0] 1 0
r 1.575503130 _24_ RTR  --- 23 ack 40 [13a 18 d 800] ------- [4:0 0:0 29 24] [8 0] 2 0
f 1.575503130 _24_ RTR  --- 23 ack 40 [13a 18 d 800] ------- [4:0 0:0 28 8] [8 0] 2 0
r 1.577548604 _8_ RTR  --- 23 ack 40 [13a 8 18 800] ------- [4:0 0:0 28 8] [8 0] 3 0
f 1.577548604 _8_ RTR  --- 23 ack 40 [13a 8 18 800] ------- [4:0 0:0 27 0] [8 0] 3 0
r 1.579594848 _0_ AGT  --- 23 ack 40 [13a 0 8 800] ------- [4:0 0:0 27 0] [8 0] 4 0
s 1.579594848 _0_ AGT  --- 26 tcp 1540 [0 0 0 0] ------- [0:0 4:0 32 0] [17 0] 0 0
r 1.579594848 _0_ RTR  --- 26 tcp 1540 [0 0 0 0] ------- [0:0 4:0 32 0] [17 0] 0 0
s 1.579594848 _0_ AGT  --- 27 tcp 1540 [0 0 0 0] ------- [0:0 4:0 32 0] [18 0] 0 0
r 1.579594848 _0_ RTR  --- 27 tcp 1540 [0 0 0 0] ------- [0:0 4:0 32 0] [18 0] 0 0
s 1.579594848 _0_ RTR  --- 26 tcp 1540 [0 0 0 0] ------- [0:0 4:0 30 8] [17 0] 0 0
s 1.579594848 _0_ RTR  --- 27 tcp 1540 [0 0 0 0] ------- [0:0 4:0 30 8] [18 0] 0 0
r 1.594901092 _8_ RTR  --- 15 tcp 1540 [13a 8 0 800] ------- [0:0 4:0 30 8] [9 0] 1 0
f 1.594901092 _8_ RTR  --- 15 tcp 1540 [13a 8 0 800] ------- [0:0 4:0 29 24] [9 0] 1 0
r 1.608826565 _24_ RTR  --- 15 tcp 1540 [13a 18 8 800] ------- [0:0 4:0 29 24] [9 0] 2 0
f 1.608826565 _24_ RTR  --- 15 tcp 1540 [13a 18 8 800] ------- [0:0 4:0 28 13] [9 0] 2 0