n -t * -s 0  -x 247 -y 342 -Z 0 -z 25  -v circle -c black
n -t * -s 1  -x 527 -y 534 -Z 0 -z 25  -v circle -c black
n -t * -s 2  -x 922 -y 455 -Z 0 -z 25  -v circle -c black
n -t * -s 3  -x 115 -y 341 -Z 0 -z 25  -v circle -c black
n -t * -s 4  -x 267 -y 508 -Z 0 -z 25  -v circle -c black
n -t * -s 5  -x 273 -y 694 -Z 0 -z 25  -v circle -c black
n -t * -s 6  -x 497 -y 137 -Z 0 -z 25  -v circle -c black
n -t * -s 7  -x 265 -y 788 -Z 0 -z 25  -v circle -c black
n -t * -s 8  -x 129 -y 708 -Z 0 -z 25  -v circle -c black
n -t * -s 9  -x 167 -y 812 -Z 0 -z 25  -v circle -c black
V -t * -v 1.0a5 -a 0
W -t * -x 1000 -y 1000
A -t * -n 1 -p 0 -o 0x7fffffff -c 30 -a 1
A -t * -h 1 -m 1073741823 -s 0
n -t 1.000000 -s 0 -x 247.000000 -y 342.000000 -U 1.660036 -V 1.115474 -T 113.852975
n -t 1.000000 -s 1 -x 527.000000 -y 534.000000 -U -1.584028 -V -8.859506 -T 54.291963
n -t 1.000000 -s 2 -x 922.000000 -y 455.000000 -U -0.954269 -V 0.298948 -T 592.076009
n -t 1.000000 -s 3 -x 115.000000 -y 341.000000 -U 7.805280 -V -1.754312 -T 106.594515
n -t 1.000000 -s 4 -x 267.000000 -y 508.000000 -U 5.629726 -V -4.160071 -T 84.373562
n -t 1.000000 -s 5 -x 273.000000 -y 694.000000 -U 5.759961 -V 3.977795 -T 70.139366
n -t 1.000000 -s 6 -x 497.000000 -y 137.000000 -U -1.947088 -V 8.786857 -T 20.029916
n -t 1.000000 -s 7 -x 265.000000 -y 788.000000 -U 5.729629 -V 1.780830 -T 103.322580
n -t 1.000000 -s 8 -x 129.000000 -y 708.000000 -U -6.827748 -V 4.169156 -T 16.550113
n -t 1.000000 -s 9 -x 167.000000 -y 812.000000 -U -0.270348 -V -3.990854 -T 155.355238
+ -t 1.000000000 -s 0 -d -1 -p tcp -e 40 -c 2 -a 0 -i 0 -k AGT 
- -t 1.000000000 -s 0 -d -1 -p tcp -e 40 -c 2 -a 0 -i 0 -k AGT
h -t 1.000000000 -s 0 -d -1 -p tcp -e 40 -c 2 -a 0 -i 0 -k AGT
+ -t 1.000000000 -s 0 -d -1 -p AODV -e 48 -c 2 -a 0 -i 0 -k RTR 
- -t 1.000000000 -s 0 -d -1 -p AODV -e 48 -c 2 -a 0 -i 0 -k RTR
h -t 1.000000000 -s 0 -d -1 -p AODV -e 48 -c 2 -a 0 -i 0 -k RTR
r -t 1.000988440 -s 3 -d -1 -p AODV -e 48 -c 2 -a 0 -i 0 -k RTR
r -t 1.000988557 -s 4 -d -1 -p AODV -e 48 -c 2 -a 0 -i 0 -k RTR
+ -t 1.000988557 -s 4 -d 0 -p AODV -e 44 -c 2 -a 0 -i 0 -k RTR 
- -t 1.000988557 -s 4 -d 0 -p AODV -e 44 -c 2 -a 0 -i 0 -k RTR
h -t 1.000988557 -s 4 -d 0 -p AODV -e 44 -c 2 -a 0 -i 0 -k RTR
+ -t 1.001869667 -s 3 -d -1 -p AODV -e 48 -c 2 -a 0 -i 0 -k RTR 
- -t 1.001869667 -s 3 -d -1 -p AODV -e 48 -c 2 -a 0 -i 0 -k RTR
h -t 1.001869667 -s 3 -d -1 -p AODV -e 48 -c 2 -a 0 -i 0 -k RTR
r -t 1.002975750 -s 0 -d -1 -p AODV -e 48 -c 2 -a 0 -i 0 -k RTR
r -t 1.002976063 -s 4 -d -1 -p AODV -e 48 -c 2 -a 0 -i 0 -k RTR
+ -t 1.006709094 -s 0 -d 4 -p tcp -e 40 -c 2 -a 0 -i 0 -k RTR 
- -t 1.006709094 -s 0 -d 4 -p tcp -e 40 -c 2 -a 0 -i 0 -k RTR
h -t 1.006709094 -s 0 -d 4 -p tcp -e 40 -c 2 -a 0 -i 0 -k RTR
r -t 1.008674765 -s 4 -d 4 -p tcp -e 40 -c 2 -a 0 -i 0 -k AGT
+ -t 1.008674765 -s 4 -d -1 -p ack -e 40 -c 2 -a 0 -i 1 -k AGT 
- -t 1.008674765 -s 4 -d -1 -p ack -e 40 -c 2 -a 0 -i 1 -k AGT
h -t 1.008674765 -s 4 -d -1 -p ack -e 40 -c 2 -a 0 -i 1 -k AGT
+ -t 1.008674765 -s 4 -d 0 -p ack -e 40 -c 2 -a 0 -i 1 -k RTR 
- -t 1.008674765 -s 4 -d 0 -p ack -e 40 -c 2 -a 0 -i 1 -k RTR
h -t 1.008674765 -s 4 -d 0 -p ack -e 40 -c 2 -a 0 -i 1 -k RTR
r -t 1.010640437 -s 0 -d 0 -p ack -e 40 -c 2 -a 0 -i 1 -k AGT
+ -t 1.010640437 -s 0 -d -1 -p tcp -e 1540 -c 2 -a 0 -i 2 -k AGT 
- -t 1.010640437 -s 0 -d -1 -p tcp -e 1540 -c 2 -a 0 -i 2 -k AGT
h -t 1.010640437 -s 0 -d -1 -p tcp -e 1540 -c 2 -a 0 -i 2 -k AGT
+ -t 1.010640437 -s 0 -d -1 -p tcp -e 1540 -c 2 -a 0 -i 3 -k AGT 
- -t 1.010640437 -s 0 -d -1 -p tcp -e 1540 -c 2 -a 0 -i 3 -k AGT
h -t 1.010640437 -s 0 -d -1 -p tcp -e 1540 -c 2 -a 0 -i 3 -k AGT
+ -t 1.010640437 -s 0 -d 4 -p tcp -e 1540 -c 2 -a 0 -i 2 -k RTR 
- -t 1.010640437 -s 0 -d 4 -p tcp -e 1540 -c 2 -a 0 -i 2 -k RTR
h -t 1.010640437 -s 0 -d 4 -p tcp -e 1540 -c 2 -a 0 -i 2 -k RTR
+ -t 1.010640437 -s 0 -d 4 -p tcp -e 1540 -c 2 -a 0 -i 3 -k RTR 
- -t 1.010640437 -s 0 -d 4 -p tcp -e 1540 -c 2 -a 0 -i 3 -k RTR
h -t 1.010640437 -s 0 -d 4 -p tcp -e 1540 -c 2 -a 0 -i 3 -k RTR
r -t 1.024586108 -s 4 -d 4 -p tcp -e 1540 -c 2 -a 0 -i 2 -k AGT
+ -t 1.024586108 -s 4 -d -1 -p ack -e 40 -c 2 -a 0 -i 4 -k AGT 
- -t 1.024586108 -s 4 -d -1 -p ack -e 40 -c 2 -a 0 -i 4 -k AGT
h -t 1.024586108 -s 4 -d -1 -p ack -e 40 -c 2 -a 0 -i 4 -k AGT
+ -t 1.024586108 -s 4 -d 0 -p ack -e 40 -c 2 -a 0 -i 4 -k RTR 
- -t 1.024586108 -s 4 -d 0 -p ack -e 40 -c 2 -a 0 -i 4 -k RTR
h -t 1.024586108 -s 4 -d 0 -p ack -e 40 -c 2 -a 0 -i 4 -k RTR
r -t 1.038572336 -s 4 -d 4 -p tcp -e 1540 -c 2 -a 0 -i 3 -k AGT
+ -t 1.038572336 -s 4 -d -1 -p ack -e 40 -c 2 -a 0 -i 5 -k AGT 
- -t 1.038572336 -s 4 -d -1 -p ack -e 40 -c 2 -a 0 -i 5 -k AGT
h -t 1.038572336 -s 4 -d -1 -p ack -e 40 -c 2 -a 0 -i 5 -k AGT
+ -t 1.038572336 -s 4 -d 0 -p ack -e 40 -c 2 -a 0 -i 5 -k RTR 
- -t 1.038572336 -s 4 -d 0 -p ack -e 40 -c 2 -a 0 -i 5 -k RTR
h -t 1.038572336 -s 4 -d 0 -p ack -e 40 -c 2 -a 0 -i 5 -k RTR
r -t 1.040778006 -s 0 -d 0 -p ack -e 40 -c 2 -a 0 -i 4 -k AGT
+ -t 1.040778006 -s 0 -d -1 -p tcp -e 1540 -c 2 -a 0 -i 6 -k AGT 
- -t 1.040778006 -s 0 -d -1 -p tcp -e 1540 -c 2 -a 0 -i 6 -k AGT
h -t 1.040778006 -s 0 -d -1 -p tcp -e 1540 -c 2 -a 0 -i 6 -k AGT
+ -t 1.040778006 -s 0 -d -1 -p tcp -e 1540 -c 2 -a 0 -i 7 -k AGT 
- -t 1.040778006 -s 0 -d -1 -p tcp -e 1540 -c 2 -a 0 -i 7 -k AGT
h -t 1.040778006 -s 0 -d -1 -p tcp -e 1540 -c 2 -a 0 -i 7 -k AGT
+ -t 1.040778006 -s 0 -d 4 -p tcp -e 1540 -c 2 -a 0 -i 6 -k RTR 
- -t 1.040778006 -s 0 -d 4 -p tcp -e 1540 -c 2 -a 0 -i 6 -k RTR
h -t 1.040778006 -s 0 -d 4 -p tcp -e 1540 -c 2 -a 0 -i 6 -k RTR
+ -t 1.040778006 -s 0 -d 4 -p tcp -e 1540 -c 2 -a 0 -i 7 -k RTR 
- -t 1.040778006 -s 0 -d 4 -p tcp -e 1540 -c 2 -a 0 -i 7 -k RTR
h -t 1.040778006 -s 0 -d 4 -p tcp -e 1540 -c 2 -a 0 -i 7 -k RTR
r -t 1.042764233 -s 0 -d 0 -p ack -e 40 -c 2 -a 0 -i 5 -k AGT
+ -t 1.042764233 -s 0 -d -1 -p tcp -e 1540 -c 2 -a 0 -i 8 -k AGT 
- -t 1.042764233 -s 0 -d -1 -p tcp -e 1540 -c 2 -a 0 -i 8 -k AGT
h -t 1.042764233 -s 0 -d -1 -p tcp -e 1540 -c 2 -a 0 -i 8 -k AGT
+ -t 1.042764233 -s 0 -d -1 -p tcp -e 1540 -c 2 -a 0 -i 9 -k AGT 
- -t 1.042764233 -s 0 -d -1 -p tcp -e 1540 -c 2 -a 0 -i 9 -k AGT
h -t 1.042764233 -s 0 -d -1 -p tcp -e 1540 -c 2 -a 0 -i 9 -k AGT
+ -t 1.042764233 -s 0 -d 4 -p tcp -e 1540 -c 2 -a 0 -i 8 -k RTR 
- -t 1.042764233 -s 0 -d 4 -p tcp -e 1540 -c 2 -a 0 -i 8 -k RTR
h -t 1.042764233 -s 0 -d 4 -p tcp -e 1540 -c 2 -a 0 -i 8 -k RTR
+ -t 1.042764233 -s 0 -d 4 -p tcp -e 1540 -c 2 -a 0 -i 9 -k RTR 
- -t 1.042764233 -s 0 -d 4 -p tcp -e 1540 -c 2 -a 0 -i 9 -k RTR
h -t 1.042764233 -s 0 -d 4 -p tcp -e 1540 -c 2 -a 0 -i 9 -k RTR
r -t 1.056669903 -s 4 -d 4 -p tcp -e 1540 -c 2 -a 0 -i 6 -k AGT
+ -t 1.056669903 -s 4 -d -1 -p ack -e 40 -c 2 -a 0 -i 10 -k AGT 
- -t 1.056669903 -s 4 -d -1 -p ack -e 40 -c 2 -a 0 -i 10 -k AGT
h -t 1.056669903 -s 4 -d -1 -p ack -e 40 -c 2 -a 0 -i 10 -k AGT
+ -t 1.056669903 -s 4 -d 0 -p ack -e 40 -c 2 -a 0 -i 10 -k RTR 
- -t 1.056669903 -s 4 -d 0 -p ack -e 40 -c 2 -a 0 -i 10 -k RTR
h -t 1.056669903 -s 4 -d 0 -p ack -e 40 -c 2 -a 0 -i 10 -k RTR
r -t 1.070836128 -s 4 -d 4 -p tcp -e 1540 -c 2 -a 0 -i 7 -k AGT
+ -t 1.070836128 -s 4 -d -1 -p ack -e 40 -c 2 -a 0 -i 11 -k AGT 
- -t 1.070836128 -s 4 -d -1 -p ack -e 40 -c 2 -a 0 -i 11 -k AGT
h -t 1.070836128 -s 4 -d -1 -p ack -e 40 -c 2 -a 0 -i 11 -k AGT
+ -t 1.070836128 -s 4 -d 0 -p ack -e 40 -c 2 -a 0 -i 11 -k RTR 
- -t 1.070836128 -s 4 -d 0 -p ack -e 40 -c 2 -a 0 -i 11 -k RTR
h -t 1.070836128 -s 4 -d 0 -p ack -e 40 -c 2 -a 0 -i 11 -k RTR
r -t 1.072741797 -s 0 -d 0 -p ack -e 40 -c 2 -a 0 -i 10 -k AGT
+ -t 1.072741797 -s 0 -d -1 -p tcp -e 1540 -c 2 -a 0 -i 12 -k AGT 
- -t 1.072741797 -s 0 -d -1 -p tcp -e 1540 -c 2 -a 0 -i 12 -k AGT
h -t 1.072741797 -s 0 -d -1 -p tcp -e 1540 -c 2 -a 0 -i 12 -k AGT
+ -t 1.072741797 -s 0 -d -1 -p tcp -e 1540 -c 2 -a 0 -i 13 -k AGT 
- -t 1.072741797 -s 0 -d -1 -p tcp -e 1540 -c 2 -a 0 -i 13 -k AGT
h -t 1.072741797 -s 0 -d -1 -p tcp -e 1540 -c 2 -a 0 -i 13 -k AGT
+ -t 1.072741797 -s 0 -d 4 -p tcp -e 1540 -c 2 -a 0 -i 12 -k RTR 
- -t 1.072741797 -s 0 -d 4 -p tcp -e 1540 -c 2 -a 0 -i 12 -k RTR
h -t 1.072741797 -s 0 -d 4 -p tcp -e 1540 -c 2 -a 0 -i 12 -k RTR
+ -t 1.072741797 -s 0 -d 4 -p tcp -e 1540 -c 2 -a 0 -i 13 -k RTR 
- -t 1.072741797 -s 0 -d 4 -p tcp -e 1540 -c 2 -a 0 -i 13 -k RTR
h -t 1.072741797 -s 0 -d 4 -p tcp -e 1540 -c 2 -a 0 -i 13 -k RTR
r -t 1.074768022 -s 0 -d 0 -p ack -e 40 -c 2 -a 0 -i 11 -k AGT
+ -t 1.074768022 -s 0 -d -1 -p tcp -e 1540 -c 2 -a 0 -i 14 -k AGT 
- -t 1.074768022 -s 0 -d -1 -p tcp -e 1540 -c 2 -a 0 -i 14 -k AGT
h -t 1.074768022 -s 0 -d -1 -p tcp -e 1540 -c 2 -a 0 -i 14 -k AGT
+ -t 1.074768022 -s 0 -d -1 -p tcp -e 1540 -c 2 -a 0 -i 15 -k AGT 
- -t 1.074768022 -s 0 -d -1 -p tcp -e 1540 -c 2 -a 0 -i 15 -k AGT
h -t 1.074768022 -s 0 -d -1 -p tcp -e 1540 -c 2 -a 0 -i 15 -k AGT
+ -t 1.074768022 -s 0 -d 4 -p tcp -e 1540 -c 2 -a 0 -i 14 -k RTR 
- -t 1.074768022 -s 0 -d 4 -p tcp -e 1540 -c 2 -a 0 -i 14 -k RTR
h -t 1.074768022 -s 0 -d 4 -p tcp -e 1540 -c 2 -a 0 -i 14 -k RTR
+ -t 1.074768022 -s 0 -d 4 -p tcp -e 1540 -c 2 -a 0 -i 15 -k RTR 
- -t 1.074768022 -s 0 -d 4 -p tcp -e 1540 -c 2 -a 0 -i 15 -k RTR
h -t 1.074768022 -s 0 -d 4 -p tcp -e 1540 -c 2 -a 0 -i 15 -k RTR
r -t 1.088653690 -s 4 -d 4 -p tcp -e 1540 -c 2 -a 0 -i 8 -k AGT
+ -t 1.088653690 -s 4 -d -1 -p ack -e 40 -c 2 -a 0 -i 16 -k AGT 
- -t 1.088653690 -s 4 -d -1 -p ack -e 40 -c 2 -a 0 -i 16 -k AGT
h -t 1.088653690 -s 4 -d -1 -p ack -e 40 -c 2 -a 0 -i 16 -k AGT
+ -t 1.088653690 -s 4 -d 0 -p ack -e 40 -c 2 -a 0 -i 16 -k RTR 
- -t 1.088653690 -s 4 -d 0 -p ack -e 40 -c 2 -a 0 -i 16 -k RTR
h -t 1.088653690 -s 4 -d 0 -p ack -e 40 -c 2 -a 0 -i 16 -k RTR
r -t 1.102499914 -s 4 -d 4 -p tcp -e 1540 -c 2 -a 0 -i 9 -k AGT
+ -t 1.102499914 -s 4 -d -1 -p ack -e 40 -c 2 -a 0 -i 17 -k AGT 
- -t 1.102499914 -s 4 -d -1 -p ack -e 40 -c 2 -a 0 -i 17 -k AGT
h -t 1.102499914 -s 4 -d -1 -p ack -e 40 -c 2 -a 0 -i 17 -k AGT
+ -t 1.102499914 -s 4 -d 0 -p ack -e 40 -c 2 -a 0 -i 17 -k RTR 
- -t 1.102499914 -s 4 -d 0 -p ack -e 40 -c 2 -a 0 -i 17 -k RTR
h -t 1.102499914 -s 4 -d 0 -p ack -e 40 -c 2 -a 0 -i 17 -k RTR
r -t 1.104485581 -s 0 -d 0 -p ack -e 40 -c 2 -a 0 -i 16 -k AGT
+ -t 1.104485581 -s 0 -d -1 -p tcp -e 1540 -c 2 -a 0 -i 18 -k AGT 
- -t 1.104485581 -s 0 -d -1 -p tcp -e 1540 -c 2 -a 0 -i 18 -k AGT
h -t 1.104485581 -s 0 -d -1 -p tcp -e 1540 -c 2 -a 0 -i 18 -k AGT
+ -t 1.104485581 -s 0 -d -1 -p tcp -e 1540 -c 2 -a 0 -i 19 -k AGT 
- -t 1.104485581 -s 0 -d -1 -p tcp -e 1540 -c 2 -a 0 -i 19 -k AGT
h -t 1.104485581 -s 0 -d -1 -p tcp -e 1540 -c 2 -a 0 -i 19 -k AGT
+ -t 1.104485581 -s 0 -d 4 -p tcp -e 1540 -c 2 -a 0 -i 18 -k RTR 
- -t 1.104485581 -s 0 -d 4 -p tcp -e 1540 -c 2 -a 0 -i 18 -k RTR
h -t 1.104485581 -s 0 -d 4 -p tcp -e 1540 -c 2 -a 0 -i 18 -k RTR
+ -t 1.104485581 -s 0 -d 4 -p tcp -e 1540 -c 2 -a 0 -i 19 -k RTR 
- -t 1.104485581 -s 0 -d 4 -p tcp -e 1540 -c 2 -a 0 -i 19 -k RTR
h -t 1.104485581 -s 0 -d 4 -p tcp -e 1540 -c 2 -a 0 -i 19 -k RTR
r -t 1.118411248 -s 4 -d 4 -p tcp -e 1540 -c 2 -a 0 -i 12 -k AGT
+ -t 1.118411248 -s 4 -d -1 -p ack -e 40 -c 2 -a 0 -i 20 -k AGT 
- -t 1.118411248 -s 4 -d -1 -p ack -e 40 -c 2 -a 0 -i 20 -k AGT
h -t 1.118411248 -s 4 -d -1 -p ack -e 40 -c 2 -a 0 -i 20 -k AGT
+ -t 1.118411248 -s 4 -d 0 -p ack -e 40 -c 2 -a 0 -i 20 -k RTR 
- -t 1.118411248 -s 4 -d 0 -p ack -e 40 -c 2 -a 0 -i 20 -k RTR
h -t 1.118411248 -s 4 -d 0 -p ack -e 40 -c 2 -a 0 -i 20 -k RTR
r -t 1.132417470 -s 4 -d 4 -p tcp -e 1540 -c 2 -a 0 -i 13 -k AGT
+ -t 1.132417470 -s 4 -d -1 -p ack -e 40 -c 2 -a 0 -i 21 -k AGT 
- -t 1.132417470 -s 4 -d -1 -p ack -e 40 -c 2 -a 0 -i 21 -k AGT
h -t 1.132417470 -s 4 -d -1 -p ack -e 40 -c 2 -a 0 -i 21 -k AGT
+ -t 1.132417470 -s 4 -d 0 -p ack -e 40 -c 2 -a 0 -i 21 -k RTR 
- -t 1.132417470 -s 4 -d 0 -p ack -e 40 -c 2 -a 0 -i 21 -k RTR
h -t 1.132417470 -s 4 -d 0 -p ack -e 40 -c 2 -a 0 -i 21 -k RTR
r -t 1.134423135 -s 0 -d 0 -p ack -e 40 -c 2 -a 0 -i 17 -k AGT
+ -t 1.134423135 -s 0 -d -1 -p tcp -e 1540 -c 2 -a 0 -i 22 -k AGT 
- -t 1.134423135 -s 0 -d -1 -p tcp -e 1540 -c 2 -a 0 -i 22 -k AGT
h -t 1.134423135 -s 0 -d -1 -p tcp -e 1540 -c 2 -a 0 -i 22 -k AGT
+ -t 1.134423135 -s 0 -d -1 -p tcp -e 1540 -c 2 -a 0 -i 23 -k AGT 
- -t 1.134423135 -s 0 -d -1 -p tcp -e 1540 -c 2 -a 0 -i 23 -k AGT
h -t 1.134423135 -s 0 -d -1 -p tcp -e 1540 -c 2 -a 0 -i 23 -k AGT
+ -t 1.134423135 -s 0 -d 4 -p tcp -e 1540 -c 2 -a 0 -i 22 -k RTR 
- -t 1.134423135 -s 0 -d 4 -p tcp -e 1540 -c 2 -a 0 -i 22 -k RTR
h -t 1.134423135 -s 0 -d 4 -p tcp -e 1540 -c 2 -a 0 -i 22 -k RTR
+ -t 1.134423135 -s 0 -d 4 -p tcp -e 1540 -c 2 -a 0 -i 23 -k RTR 
- -t 1.134423135 -s 0 -d 4 -p tcp -e 1540 -c 2 -a 0 -i 23 -k RTR
h -t 1.134423135 -s 0 -d 4 -p tcp -e 1540 -c 2 -a 0 -i 23 -k RTR
r -t 1.136649356 -s 0 -d 0 -p ack -e 40 -c 2 -a 0 -i 20 -k AGT
+ -t 1.136649356 -s 0 -d -1 -p tcp -e 1540 -c 2 -a 0 -i 24 -k AGT 
- -t 1.136649356 -s 0 -d -1 -p tcp -e 1540 -c 2 -a 0 -i 24 -k AGT
h -t 1.136649356 -s 0 -d -1 -p tcp -e 1540 -c 2 -a 0 -i 24 -k AGT
+ -t 1.136649356 -s 0 -d -1 -p tcp -e 1540 -c 2 -a 0 -i 25 -k AGT 
- -t 1.136649356 -s 0 -d -1 -p tcp -e 1540 -c 2 -a 0 -i 25 -k AGT
h -t 1.136649356 -s 0 -d -1 -p tcp -e 1540 -c 2 -a 0 -i 25 -k AGT
+ -t 1.136649356 -s 0 -d 4 -p tcp -e 1540 -c 2 -a 0 -i 24 -k RTR 
- -t 1.136649356 -s 0 -d 4 -p tcp -e 1540 -c 2 -a 0 -i 24 -k RTR
h -t 1.136649356 -s 0 -d 4 -p tcp -e 1540 -c 2 -a 0 -i 24 -k RTR
+ -t 1.136649356 -s 0 -d 4 -p tcp -e 1540 -c 2 -a 0 -i 25 -k RTR 
- -t 1.136649356 -s 0 -d 4 -p tcp -e 1540 -c 2 -a 0 -i 25 -k RTR
h -t 1.136649356 -s 0 -d 4 -p tcp -e 1540 -c 2 -a 0 -i 25 -k RTR
r -t 1.150495022 -s 4 -d 4 -p tcp -e 1540 -c 2 -a 0 -i 14 -k AGT
+ -t 1.150495022 -s 4 -d -1 -p ack -e 40 -c 2 -a 0 -i 26 -k AGT 
- -t 1.150495022 -s 4 -d -1 -p ack -e 40 -c 2 -a 0 -i 26 -k AGT
h -t 1.150495022 -s 4 -d -1 -p ack -e 40 -c 2 -a 0 -i 26 -k AGT
+ -t 1.150495022 -s 4 -d 0 -p ack -e 40 -c 2 -a 0 -i 26 -k RTR 
- -t 1.150495022 -s 4 -d 0 -p ack -e 40 -c 2 -a 0 -i 26 -k RTR
h -t 1.150495022 -s 4 -d 0 -p ack -e 40 -c 2 -a 0 -i 26 -k RTR
r -t 1.164681241 -s 4 -d 4 -p tcp -e 1540 -c 2 -a 0 -i 15 -k AGT
+ -t 1.164681241 -s 4 -d -1 -p ack -e 40 -c 2 -a 0 -i 27 -k AGT 
- -t 1.164681241 -s 4 -d -1 -p ack -e 40 -c 2 -a 0 -i 27 -k AGT
h -t 1.164681241 -s 4 -d -1 -p ack -e 40 -c 2 -a 0 -i 27 -k AGT
+ -t 1.164681241 -s 4 -d 0 -p ack -e 40 -c 2 -a 0 -i 27 -k RTR 
- -t 1.164681241 -s 4 -d 0 -p ack -e 40 -c 2 -a 0 -i 27 -k RTR
h -t 1.164681241 -s 4 -d 0 -p ack -e 40 -c 2 -a 0 -i 27 -k RTR
r -t 1.178547460 -s 4 -d 4 -p tcp -e 1540 -c 2 -a 0 -i 18 -k AGT
+ -t 1.178547460 -s 4 -d -1 -p ack -e 40 -c 2 -a 0 -i 28 -k AGT 
- -t 1.178547460 -s 4 -d -1 -p ack -e 40 -c 2 -a 0 -i 28 -k AGT
h -t 1.178547460 -s 4 -d -1 -p ack -e 40 -c 2 -a 0 -i 28 -k AGT
+ -t 1.178547460 -s 4 -d 0 -p ack -e 40 -c 2 -a 0 -i 28 -k RTR 
- -t 1.178547460 -s 4 -d 0 -p ack -e 40 -c 2 -a 0 -i 28 -k RTR
h -t 1.178547460 -s 4 -d 0 -p ack -e 40 -c 2 -a 0 -i 28 -k RTR
r -t 1.180513124 -s 0 -d 0 -p ack -e 40 -c 2 -a 0 -i 21 -k AGT
+ -t 1.180513124 -s 0 -d -1 -p tcp -e 1540 -c 2 -a 0 -i 29 -k AGT 
- -t 1.180513124 -s 0 -d -1 -p tcp -e 1540 -c 2 -a 0 -i 29 -k AGT
h -t 1.180513124 -s 0 -d -1 -p tcp -e 1540 -c 2 -a 0 -i 29 -k AGT
+ -t 1.180513124 -s 0 -d -1 -p tcp -e 1540 -c 2 -a 0 -i 30 -k AGT 
- -t 1.180513124 -s 0 -d -1 -p tcp -e 1540 -c 2 -a 0 -i 30 -k AGT
h -t 1.180513124 -s 0 -d -1 -p tcp -e 1540 -c 2 -a 0 -i 30 -k AGT
+ -t 1.180513124 -s 0 -d 4 -p tcp -e 1540 -c 2 -a 0 -i 29 -k RTR 
- -t 1.180513124 -s 0 -d 4 -p tcp -e 1540 -c 2 -a 0 -i 29 -k RTR
h -t 1.180513124 -s 0 -d 4 -p tcp -e 1540 -c 2 -a 0 -i 29 -k RTR
+ -t 1.180513124 -s 0 -d 4 -p tcp -e 1540 -c 2 -a 0 -i 30 -k RTR 
- -t 1.180513124 -s 0 -d 4 -p tcp -e 1540 -c 2 -a 0 -i 30 -k RTR
h -t 1.180513124 -s 0 -d 4 -p tcp -e 1540 -c 2 -a 0 -i 30 -k RTR
r -t 1.194518787 -s 4 -d 4 -p tcp -e 1540 -c 2 -a 0 -i 19 -k AGT
+ -t 1.194518787 -s 4 -d -1 -p ack -e 40 -c 2 -a 0 -i 31 -k AGT 
- -t 1.194518787 -s 4 -d -1 -p ack -e 40 -c 2 -a 0 -i 31 -k AGT
h -t 1.194518787 -s 4 -d -1 -p ack -e 40 -c 2 -a 0 -i 31 -k AGT
+ -t 1.194518787 -s 4 -d 0 -p ack -e 40 -c 2 -a 0 -i 31 -k RTR 
- -t 1.194518787 -s 4 -d 0 -p ack -e 40 -c 2 -a 0 -i 31 -k RTR
h -t 1.194518787 -s 4 -d 0 -p ack -e 40 -c 2 -a 0 -i 31 -k RTR
r -t 1.208485004 -s 4 -d 4 -p tcp -e 1540 -c 2 -a 0 -i 22 -k AGT
+ -t 1.208485004 -s 4 -d -1 -p ack -e 40 -c 2 -a 0 -i 32 -k AGT 
- -t 1.208485004 -s 4 -d -1 -p ack -e 40 -c 2 -a 0 -i 32 -k AGT
h -t 1.208485004 -s 4 -d -1 -p ack -e 40 -c 2 -a 0 -i 32 -k AGT
+ -t 1.208485004 -s 4 -d 0 -p ack -e 40 -c 2 -a 0 -i 32 -k RTR 
- -t 1.208485004 -s 4 -d 0 -p ack -e 40 -c 2 -a 0 -i 32 -k RTR
h -t 1.208485004 -s 4 -d 0 -p ack -e 40 -c 2 -a 0 -i 32 -k RTR
r -t 1.210370666 -s 0 -d 0 -p ack -e 40 -c 2 -a 0 -i 26 -k AGT
+ -t 1.210370666 -s 0 -d -1 -p tcp -e 1540 -c 2 -a 0 -i 33 -k AGT 
- -t 1.210370666 -s 0 -d -1 -p tcp -e 1540 -c 2 -a 0 -i 33 -k AGT
h -t 1.210370666 -s 0 -d -1 -p tcp -e 1540 -c 2 -a 0 -i 33 -k AGT
+ -t 1.210370666 -s 0 -d -1 -p tcp -e 1540 -c 2 -a 0 -i 34 -k AGT 
- -t 1.210370666 -s 0 -d -1 -p tcp -e 1540 -c 2 -a 0 -i 34 -k AGT
h -t 1.210370666 -s 0 -d -1 -p tcp -e 1540 -c 2 -a 0 -i 34 -k AGT
+ -t 1.210370666 -s 0 -d 4 -p tcp -e 1540 -c 2 -a 0 -i 33 -k RTR 
- -t 1.210370666 -s 0 -d 4 -p tcp -e 1540 -c 2 -a 0 -i 33 -k RTR
h -t 1.210370666 -s 0 -d 4 -p tcp -e 1540 -c 2 -a 0 -i 33 -k RTR
+ -t 1.210370666 -s 0 -d 4 -p tcp -e 1540 -c 2 -a 0 -i 34 -k RTR 
- -t 1.210370666 -s 0 -d 4 -p tcp -e 1540 -c 2 -a 0 -i 34 -k RTR
h -t 1.210370666 -s 0 -d 4 -p tcp -e 1540 -c 2 -a 0 -i 34 -k RTR
r -t 1.224236328 -s 4 -d 4 -p tcp -e 1540 -c 2 -a 0 -i 23 -k AGT
+ -t 1.224236328 -s 4 -d -1 -p ack -e 40 -c 2 -a 0 -i 35 -k AGT 
- -t 1.224236328 -s 4 -d -1 -p ack -e 40 -c 2 -a 0 -i 35 -k AGT
h -t 1.224236328 -s 4 -d -1 -p ack -e 40 -c 2 -a 0 -i 35 -k AGT
+ -t 1.224236328 -s 4 -d 0 -p ack -e 40 -c 2 -a 0 -i 35 -k RTR 
- -t 1.224236328 -s 4 -d 0 -p ack -e 40 -c 2 -a 0 -i 35 -k RTR
h -t 1.224236328 -s 4 -d 0 -p ack -e 40 -c 2 -a 0 -i 35 -k RTR
r -t 1.238262543 -s 4 -d 4 -p tcp -e 1540 -c 2 -a 0 -i 24 -k AGT
+ -t 1.238262543 -s 4 -d -1 -p ack -e 40 -c 2 -a 0 -i 36 -k AGT 
- -t 1.238262543 -s 4 -d -1 -p ack -e 40 -c 2 -a 0 -i 36 -k AGT
h -t 1.238262543 -s 4 -d -1 -p ack -e 40 -c 2 -a 0 -i 36 -k AGT
+ -t 1.238262543 -s 4 -d 0 -p ack -e 40 -c 2 -a 0 -i 36 -k RTR 
- -t 1.238262543 -s 4 -d 0 -p ack -e 40 -c 2 -a 0 -i 36 -k RTR
h -t 1.238262543 -s 4 -d 0 -p ack -e 40 -c 2 -a 0 -i 36 -k RTR
r -t 1.240148204 -s 0 -d 0 -p ack -e 40 -c 2 -a 0 -i 27 -k AGT
+ -t 1.240148204 -s 0 -d -1 -p tcp -e 1540 -c 2 -a 0 -i 37 -k AGT 
- -t 1.240148204 -s 0 -d -1 -p tcp -e 1540 -c 2 -a 0 -i 37 -k AGT
h -t 1.240148204 -s 0 -d -1 -p tcp -e 1540 -c 2 -a 0 -i 37 -k AGT
+ -t 1.240148204 -s 0 -d -1 -p tcp -e 1540 -c 2 -a 0 -i 38 -k AGT 
- -t 1.240148204 -s 0 -d -1 -p tcp -e 1540 -c 2 -a 0 -i 38 -k AGT
h -t 1.240148204 -s 0 -d -1 -p tcp -e 1540 -c 2 -a 0 -i 38 -k AGT
+ -t 1.240148204 -s 0 -d 4 -p tcp -e 1540 -c 2 -a 0 -i 37 -k RTR 
- -t 1.240148204 -s 0 -d 4 -p tcp -e 1540 -c 2 -a 0 -i 37 -k RTR
h -t 1.240148204 -s 0 -d 4 -p tcp -e 1540 -c 2 -a 0 -i 37 -k RTR
+ -t 1.240148204 -s 0 -d 4 -p tcp -e 1540 -c 2 -a 0 -i 38 -k RTR 
- -t 1.240148204 -s 0 -d 4 -p tcp -e 1540 -c 2 -a 0 -i 38 -k RTR
h -t 1.240148204 -s 0 -d 4 -p tcp -e 1540 -c 2 -a 0 -i 38 -k RTR
r -t 1.254033864 -s 4 -d 4 -p tcp -e 1540 -c 2 -a 0 -i 25 -k AGT
+ -t 1.254033864 -s 4 -d -1 -p ack -e 40 -c 2 -a 0 -i 39 -k AGT 
- -t 1.254033864 -s 4 -d -1 -p ack -e 40 -c 2 -a 0 -i 39 -k AGT
h -t 1.254033864 -s 4 -d -1 -p ack -e 40 -c 2 -a 0 -i 39 -k AGT
+ -t 1.254033864 -s 4 -d 0 -p ack -e 40 -c 2 -a 0 -i 39 -k RTR 
- -t 1.254033864 -s 4 -d 0 -p ack -e 40 -c 2 -a 0 -i 39 -k RTR
h -t 1.254033864 -s 4 -d 0 -p ack -e 40 -c 2 -a 0 -i 39 -k RTR
r -t 1.268080078 -s 4 -d 4 -p tcp -e 1540 -c 2 -a 0 -i 29 -k AGT
+ -t 1.268080078 -s 4 -d -1 -p ack -e 40 -c 2 -a 0 -i 40 -k AGT 
- -t 1.268080078 -s 4 -d -1 -p ack -e 40 -c 2 -a 0 -i 40 -k AGT
h -t 1.268080078 -s 4 -d -1 -p ack -e 40 -c 2 -a 0 -i 40 -k AGT
+ -t 1.268080078 -s 4 -d 0 -p ack -e 40 -c 2 -a 0 -i 40 -k RTR 
- -t 1.268080078 -s 4 -d 0 -p ack -e 40 -c 2 -a 0 -i 40 -k RTR
h -t 1.268080078 -s 4 -d 0 -p ack -e 40 -c 2 -a 0 -i 40 -k RTR
r -t 1.282106290 -s 4 -d 4 -p tcp -e 1540 -c 2 -a 0 -i 30 -k AGT
+ -t 1.282106290 -s 4 -d -1 -p ack -e 40 -c 2 -a 0 -i 41 -k AGT 
- -t 1.282106290 -s 4 -d -1 -p ack -e 40 -c 2 -a 0 -i 41 -k AGT
h -t 1.282106290 -s 4 -d -1 -p ack -e 40 -c 2 -a 0 -i 41 -k AGT
+ -t 1.282106290 -s 4 -d 0 -p ack -e 40 -c 2 -a 0 -i 41 -k RTR 
- -t 1.282106290 -s 4 -d 0 -p ack -e 40 -c 2 -a 0 -i 41 -k RTR
h -t 1.282106290 -s 4 -d 0 -p ack -e 40 -c 2 -a 0 -i 41 -k RTR
r -t 1.283991949 -s 0 -d 0 -p ack -e 40 -c 2 -a 0 -i 28 -k AGT
+ -t 1.283991949 -s 0 -d -1 -p tcp -e 1540 -c 2 -a 0 -i 42 -k AGT 
- -t 1.283991949 -s 0 -d -1 -p tcp -e 1540 -c 2 -a 0 -i 42 -k AGT
h -t 1.283991949 -s 0 -d -1 -p tcp -e 1540 -c 2 -a 0 -i 42 -k AGT
+ -t 1.283991949 -s 0 -d -1 -p tcp -e 1540 -c 2 -a 0 -i 43 -k AGT 
- -t 1.283991949 -s 0 -d -1 -p tcp -e 1540 -c 2 -a 0 -i 43 -k AGT
h -t 1.283991949 -s 0 -d -1 -p tcp -e 1540 -c 2 -a 0 -i 43 -k AGT
+ -t 1.283991949 -s 0 -d 4 -p tcp -e 1540 -c 2 -a 0 -i 42 -k RTR 
- -t 1.283991949 -s 0 -d 4 -p tcp -e 1540 -c 2 -a 0 -i 42 -k RTR
h -t 1.283991949 -s 0 -d 4 -p tcp -e 1540 -c 2 -a 0 -i 42 -k RTR
+ -t 1.283991949 -s 0 -d 4 -p tcp -e 1540 -c 2 -a 0 -i 43 -k RTR 
- -t 1.283991949 -s 0 -d 4 -p tcp -e 1540 -c 2 -a 0 -i 43 -k RTR
h -t 1.283991949 -s 0 -d 4 -p tcp -e 1540 -c 2 -a 0 -i 43 -k RTR
r -t 1.285878160 -s 0 -d 0 -p ack -e 40 -c 2 -a 0 -i 31 -k AGT
+ -t 1.285878160 -s 0 -d -1 -p tcp -e 1540 -c 2 -a 0 -i 44 -k AGT 
- -t 1.285878160 -s 0 -d -1 -p tcp -e 1540 -c 2 -a 0 -i 44 -k AGT
h -t 1.285878160 -s 0 -d -1 -p tcp -e 1540 -c 2 -a 0 -i 44 -k AGT
+ -t 1.285878160 -s 0 -d -1 -p tcp -e 1540 -c 2 -a 0 -i 45 -k AGT 
- -t 1.285878160 -s 0 -d -1 -p tcp -e 1540 -c 2 -a 0 -i 45 -k AGT
h -t 1.285878160 -s 0 -d -1 -p tcp -e 1540 -c 2 -a 0 -i 45 -k AGT
+ -t 1.285878160 -s 0 -d 4 -p tcp -e 1540 -c 2 -a 0 -i 44 -k RTR 
- -t 1.285878160 -s 0 -d 4 -p tcp -e 1540 -c 2 -a 0 -i 44 -k RTR
h -t 1.285878160 -s 0 -d 4 -p tcp -e 1540 -c 2 -a 0 -i 44 -k RTR
+ -t 1.285878160 -s 0 -d 4 -p tcp -e 1540 -c 2 -a 0 -i 45 -k RTR 
- -t 1.285878160 -s 0 -d 4 -p tcp -e 1540 -c 2 -a 0 -i 45 -k RTR
h -t 1.285878160 -s 0 -d 4 -p tcp -e 1540 -c 2 -a 0 -i 45 -k RTR
r -t 1.287824371 -s 0 -d 0 -p ack -e 40 -c 2 -a 0 -i 32 -k AGT
+ -t 1.287824371 -s 0 -d -1 -p tcp -e 1540 -c 2 -a 0 -i 46 -k AGT 
- -t 1.287824371 -s 0 -d -1 -p tcp -e 1540 -c 2 -a 0 -i 46 -k AGT
h -t 1.287824371 -s 0 -d -1 -p tcp -e 1540 -c 2 -a 0 -i 46 -k AGT
+ -t 1.287824371 -s 0 -d -1 -p tcp -e 1540 -c 2 -a 0 -i 47 -k AGT 
- -t 1.287824371 -s 0 -d -1 -p tcp -e 1540 -c 2 -a 0 -i 47 -k AGT
h -t 1.287824371 -s 0 -d -1 -p tcp -e 1540 -c 2 -a 0 -i 47 -k AGT
+ -t 1.287824371 -s 0 -d 4 -p tcp -e 1540 -c 2 -a 0 -i 46 -k RTR 
- -t 1.287824371 -s 0 -d 4 -p tcp -e 1540 -c 2 -a 0 -i 46 -k RTR
h -t 1.287824371 -s 0 -d 4 -p tcp -e 1540 -c 2 -a 0 -i 46 -k RTR
+ -t 1.287824371 -s 0 -d 4 -p tcp -e 1540 -c 2 -a 0 -i 47 -k RTR 
- -t 1.287824371 -s 0 -d 4 -p tcp -e 1540 -c 2 -a 0 -i 47 -k RTR
h -t 1.287824371 -s 0 -d 4 -p tcp -e 1540 -c 2 -a 0 -i 47 -k RTR
r -t 1.289990582 -s 0 -d 0 -p ack -e 40 -c 2 -a 0 -i 35 -k AGT
+ -t 1.289990582 -s 0 -d -1 -p tcp -e 1540 -c 2 -a 0 -i 48 -k AGT 
- -t 1.289990582 -s 0 -d -1 -p tcp -e 1540 -c 2 -a 0 -i 48 -k AGT
h -t 1.289990582 -s 0 -d -1 -p tcp -e 1540 -c 2 -a 0 -i 48 -k AGT
+ -t 1.289990582 -s 0 -d -1 -p tcp -e 1540 -c 2 -a 0 -i 49 -k AGT 
- -t 1.289990582 -s 0 -d -1 -p tcp -e 1540 -c 2 -a 0 -i 49 -k AGT
h -t 1.289990582 -s 0 -d -1 -p tcp -e 1540 -c 2 -a 0 -i 49 -k AGT
+ -t 1.289990582 -s 0 -d 4 -p tcp -e 1540 -c 2 -a 0 -i 48 -k RTR 
- -t 1.289990582 -s 0 -d 4 -p tcp -e 1540 -c 2 -a 0 -i 48 -k RTR
h -t 1.289990582 -s 0 -d 4 -p tcp -e 1540 -c 2 -a 0 -i 48 -k RTR
+ -t 1.289990582 -s 0 -d 4 -p tcp -e 1540 -c 2 -a 0 -i 49 -k RTR 
- -t 1.289990582 -s 0 -d 4 -p tcp -e 1540 -c 2 -a 0 -i 49 -k RTR
h -t 1.289990582 -s 0 -d 4 -p tcp -e 1540 -c 2 -a 0 -i 49 -k RTR
r -t 1.303836240 -s 4 -d 4 -p tcp -e 1540 -c 2 -a 0 -i 33 -k AGT
+ -t 1.303836240 -s 4 -d -1 -p ack -e 40 -c 2 -a 0 -i 50 -k AGT 
- -t 1.303836240 -s 4 -d -1 -p ack -e 40 -c 2 -a 0 -i 50 -k AGT
h -t 1.303836240 -s 4 -d -1 -p ack -e 40 -c 2 -a 0 -i 50 -k AGT
+ -t 1.303836240 -s 4 -d 0 -p ack -e 40 -c 2 -a 0 -i 50 -k RTR 
- -t 1.303836240 -s 4 -d 0 -p ack -e 40 -c 2 -a 0 -i 50 -k RTR
h -t 1.303836240 -s 4 -d 0 -p ack -e 40 -c 2 -a 0 -i 50 -k RTR
r -t 1.317942451 -s 4 -d 4 -p tcp -e 1540 -c 2 -a 0 -i 34 -k AGT
+ -t 1.317942451 -s 4 -d -1 -p ack -e 40 -c 2 -a 0 -i 51 -k AGT 
- -t 1.317942451 -s 4 -d -1 -p ack -e 40 -c 2 -a 0 -i 51 -k AGT
h -t 1.317942451 -s 4 -d -1 -p ack -e 40 -c 2 -a 0 -i 51 -k AGT
+ -t 1.317942451 -s 4 -d 0 -p ack -e 40 -c 2 -a 0 -i 51 -k RTR 
- -t 1.317942451 -s 4 -d 0 -p ack -e 40 -c 2 -a 0 -i 51 -k RTR
h -t 1.317942451 -s 4 -d 0 -p ack -e 40 -c 2 -a 0 -i 51 -k RTR
r -t 1.331948660 -s 4 -d 4 -p tcp -e 1540 -c 2 -a 0 -i 37 -k AGT
+ -t 1.331948660 -s 4 -d -1 -p ack -e 40 -c 2 -a 0 -i 52 -k AGT 
- -t 1.331948660 -s 4 -d -1 -p ack -e 40 -c 2 -a 0 -i 52 -k AGT
h -t 1.331948660 -s 4 -d -1 -p ack -e 40 -c 2 -a 0 -i 52 -k AGT
+ -t 1.331948660 -s 4 -d 0 -p ack -e 40 -c 2 -a 0 -i 52 -k RTR 
- -t 1.331948660 -s 4 -d 0 -p ack -e 40 -c 2 -a 0 -i 52 -k RTR
h -t 1.331948660 -s 4 -d 0 -p ack -e 40 -c 2 -a 0 -i 52 -k RTR
r -t 1.333814316 -s 0 -d 0 -p ack -e 40 -c 2 -a 0 -i 36 -k AGT
+ -t 1.333814316 -s 0 -d -1 -p tcp -e 1540 -c 2 -a 0 -i 53 -k AGT 
- -t 1.333814316 -s 0 -d -1 -p tcp -e 1540 -c 2 -a 0 -i 53 -k AGT
h -t 1.333814316 -s 0 -d -1 -p tcp -e 1540 -c 2 -a 0 -i 53 -k AGT
+ -t 1.333814316 -s 0 -d -1 -p tcp -e 1540 -c 2 -a 0 -i 54 -k AGT 
- -t 1.333814316 -s 0 -d -1 -p tcp -e 1540 -c 2 -a 0 -i 54 -k AGT
h -t 1.333814316 -s 0 -d -1 -p tcp -e 1540 -c 2 -a 0 -i 54 -k AGT
+ -t 1.333814316 -s 0 -d 4 -p tcp -e 1540 -c 2 -a 0 -i 53 -k RTR 
- -t 1.333814316 -s 0 -d 4 -p tcp -e 1540 -c 2 -a 0 -i 53 -k RTR
h -t 1.333814316 -s 0 -d 4 -p tcp -e 1540 -c 2 -a 0 -i 53 -k RTR
+ -t 1.333814316 -s 0 -d 4 -p tcp -e 1540 -c 2 -a 0 -i 54 -k RTR 
- -t 1.333814316 -s 0 -d 4 -p tcp -e 1540 -c 2 -a 0 -i 54 -k RTR
h -t 1.333814316 -s 0 -d 4 -p tcp -e 1540 -c 2 -a 0 -i 54 -k RTR
r -t 1.347899972 -s 4 -d 4 -p tcp -e 1540 -c 2 -a 0 -i 38 -k AGT
+ -t 1.347899972 -s 4 -d -1 -p ack -e 40 -c 2 -a 0 -i 55 -k AGT 
- -t 1.347899972 -s 4 -d -1 -p ack -e 40 -c 2 -a 0 -i 55 -k AGT
h -t 1.347899972 -s 4 -d -1 -p ack -e 40 -c 2 -a 0 -i 55 -k AGT
+ -t 1.347899972 -s 4 -d 0 -p ack -e 40 -c 2 -a 0 -i 55 -k RTR 
- -t 1.347899972 -s 4 -d 0 -p ack -e 40 -c 2 -a 0 -i 55 -k RTR
h -t 1.347899972 -s 4 -d 0 -p ack -e 40 -c 2 -a 0 -i 55 -k RTR
r -t 1.361726179 -s 4 -d 4 -p tcp -e 1540 -c 2 -a 0 -i 42 -k AGT
+ -t 1.361726179 -s 4 -d -1 -p ack -e 40 -c 2 -a 0 -i 56 -k AGT 
- -t 1.361726179 -s 4 -d -1 -p ack -e 40 -c 2 -a 0 -i 56 -k AGT
h -t 1.361726179 -s 4 -d -1 -p ack -e 40 -c 2 -a 0 -i 56 -k AGT
+ -t 1.361726179 -s 4 -d 0 -p ack -e 40 -c 2 -a 0 -i 56 -k RTR 
- -t 1.361726179 -s 4 -d 0 -p ack -e 40 -c 2 -a 0 -i 56 -k RTR
h -t 1.361726179 -s 4 -d 0 -p ack -e 40 -c 2 -a 0 -i 56 -k RTR
r -t 1.375772386 -s 4 -d 4 -p tcp -e 1540 -c 2 -a 0 -i 43 -k AGT
+ -t 1.375772386 -s 4 -d -1 -p ack -e 40 -c 2 -a 0 -i 57 -k AGT 
- -t 1.375772386 -s 4 -d -1 -p ack -e 40 -c 2 -a 0 -i 57 -k AGT
h -t 1.375772386 -s 4 -d -1 -p ack -e 40 -c 2 -a 0 -i 57 -k AGT
+ -t 1.375772386 -s 4 -d 0 -p ack -e 40 -c 2 -a 0 -i 57 -k RTR 
- -t 1.375772386 -s 4 -d 0 -p ack -e 40 -c 2 -a 0 -i 57 -k RTR
h -t 1.375772386 -s 4 -d 0 -p ack -e 40 -c 2 -a 0 -i 57 -k RTR
r -t 1.377618040 -s 0 -d 0 -p ack -e 40 -c 2 -a 0 -i 39 -k AGT
+ -t 1.377618040 -s 0 -d -1 -p tcp -e 1540 -c 2 -a 0 -i 58 -k AGT 
- -t 1.377618040 -s 0 -d -1 -p tcp -e 1540 -c 2 -a 0 -i 58 -k AGT
h -t 1.377618040 -s 0 -d -1 -p tcp -e 1540 -c 2 -a 0 -i 58 -k AGT
+ -t 1.377618040 -s 0 -d -1 -p tcp -e 1540 -c 2 -a 0 -i 59 -k AGT 
- -t 1.377618040 -s 0 -d -1 -p tcp -e 1540 -c 2 -a 0 -i 59 -k AGT
h -t 1.377618040 -s 0 -d -1 -p tcp -e 1540 -c 2 -a 0 -i 59 -k AGT
+ -t 1.377618040 -s 0 -d 4 -p tcp -e 1540 -c 2 -a 0 -i 58 -k RTR 
- -t 1.377618040 -s 0 -d 4 -p tcp -e 1540 -c 2 -a 0 -i 58 -k RTR
h -t 1.377618040 -s 0 -d 4 -p tcp -e 1540 -c 2 -a 0 -i 58 -k RTR
+ -t 1.377618040 -s 0 -d 4 -p tcp -e 1540 -c 2 -a 0 -i 59 -k RTR 
- -t 1.377618040 -s 0 -d 4 -p tcp -e 1540 -c 2 -a 0 -i 59 -k RTR
h -t 1.377618040 -s 0 -d 4 -p tcp -e 1540 -c 2 -a 0 -i 59 -k RTR
r -t 1.379604245 -s 0 -d 0 -p ack -e 40 -c 2 -a 0 -i 40 -k AGT
+ -t 1.379604245 -s 0 -d -1 -p tcp -e 1540 -c 2 -a 0 -i 60 -k AGT 
- -t 1.379604245 -s 0 -d -1 -p tcp -e 1540 -c 2 -a 0 -i 60 -k AGT
h -t 1.379604245 -s 0 -d -1 -p tcp -e 1540 -c 2 -a 0 -i 60 -k AGT
+ -t 1.379604245 -s 0 -d -1 -p tcp -e 1540 -c 2 -a 0 -i 61 -k AGT 
- -t 1.379604245 -s 0 -d -1 -p tcp -e 1540 -c 2 -a 0 -i 61 -k AGT
h -t 1.379604245 -s 0 -d -1 -p tcp -e 1540 -c 2 -a 0 -i 61 -k AGT
+ -t 1.379604245 -s 0 -d 4 -p tcp -e 1540 -c 2 -a 0 -i 60 -k RTR 
- -t 1.379604245 -s 0 -d 4 -p tcp -e 1540 -c 2 -a 0 -i 60 -k RTR
h -t 1.379604245 -s 0 -d 4 -p tcp -e 1540 -c 2 -a 0 -i 60 -k RTR
+ -t 1.379604245 -s 0 -d 4 -p tcp -e 1540 -c 2 -a 0 -i 61 -k RTR 
- -t 1.379604245 -s 0 -d 4 -p tcp -e 1540 -c 2 -a 0 -i 61 -k RTR
h -t 1.379604245 -s 0 -d 4 -p tcp -e 1540 -c 2 -a 0 -i 61 -k RTR
r -t 1.393589899 -s 4 -d 4 -p tcp -e 1540 -c 2 -a 0 -i 44 -k AGT
+ -t 1.393589899 -s 4 -d -1 -p ack -e 40 -c 2 -a 0 -i 62 -k AGT 
- -t 1.393589899 -s 4 -d -1 -p ack -e 40 -c 2 -a 0 -i 62 -k AGT
h -t 1.393589899 -s 4 -d -1 -p ack -e 40 -c 2 -a 0 -i 62 -k AGT
+ -t 1.393589899 -s 4 -d 0 -p ack -e 40 -c 2 -a 0 -i 62 -k RTR 
- -t 1.393589899 -s 4 -d 0 -p ack -e 40 -c 2 -a 0 -i 62 -k RTR
h -t 1.393589899 -s 4 -d 0 -p ack -e 40 -c 2 -a 0 -i 62 -k RTR
r -t 1.395495553 -s 0 -d 0 -p ack -e 40 -c 2 -a 0 -i 41 -k AGT
+ -t 1.395495553 -s 0 -d -1 -p tcp -e 1540 -c 2 -a 0 -i 63 -k AGT 
- -t 1.395495553 -s 0 -d -1 -p tcp -e 1540 -c 2 -a 0 -i 63 -k AGT
h -t 1.395495553 -s 0 -d -1 -p tcp -e 1540 -c 2 -a 0 -i 63 -k AGT