n -t * -s 0  -x 618 -y 450 -Z 0 -z 25  -v circle -c black
n -t * -s 1  -x 55 -y 33 -Z 0 -z 25  -v circle -c black
n -t * -s 2  -x 287 -y 237 -Z 0 -z 25  -v circle -c black
n -t * -s 3  -x 612 -y 338 -Z 0 -z 25  -v circle -c black
n -t * -s 4  -x 787 -y 688 -Z 0 -z 25  -v circle -c black
n -t * -s 5  -x 626 -y 487 -Z 0 -z 25  -v circle -c black
n -t * -s 6  -x 553 -y 433 -Z 0 -z 25  -v circle -c black
n -t * -s 7  -x 968 -y 53 -Z 0 -z 25  -v circle -c black
n -t * -s 8  -x 751 -y 631 -Z 0 -z 25  -v circle -c black
n -t * -s 9  -x 291 -y 947 -Z 0 -z 25  -v circle -c black
V -t * -v 1.0a5 -a 0
W -t * -x 1000 -y 1000
A -t * -n 1 -p 0 -o 0x7fffffff -c 30 -a 1
A -t * -h 1 -m 1073741823 -s 0
n -t 1.000000 -s 0 -x 618.000000 -y 450.000000 -U -3.963543 -V -0.538823 -T 109.498002
n -t 1.000000 -s 1 -x 55.000000 -y 33.000000 -U 3.920099 -V 4.542337 -T 16.071023
n -t 1.000000 -s 2 -x 287.000000 -y 237.000000 -U 1.228428 -V 3.806700 -T 140.016294
n -t 1.000000 -s 3 -x 612.000000 -y 338.000000 -U -8.486886 -V 5.288929 -T 8.130191
n -t 1.000000 -s 4 -x 787.000000 -y 688.000000 -U -0.443354 -V -2.967059 -T 175.931805
n -t 1.000000 -s 5 -x 626.000000 -y 487.000000 -U -6.979710 -V -0.532588 -T 71.349671
n -t 1.000000 -s 6 -x 553.000000 -y 433.000000 -U 1.077026 -V 8.935324 -T 50.138081
n -t 1.000000 -s 7 -x 968.000000 -y 53.000000 -U -5.547037 -V 7.087339 -T 102.577282
n -t 1.000000 -s 8 -x 751.000000 -y 631.000000 -U 2.890978 -V -4.079491 -T 31.131335
n -t 1.000000 -s 9 -x 291.000000 -y 947.000000 -U -2.906498 -V -9.568295 -T 77.756800
+ -t 1.000000000 -s 0 -d -1 -p tcp -e 40 -c 2 -a 0 -i 0 -k AGT 
- -t 1.000000000 -s 0 -d -1 -p tcp -e 40 -c 2 -a 0 -i 0 -k AGT
h -t 1.000000000 -s 0 -d -1 -p tcp -e 40 -c 2 -a 0 -i 0 -k AGT
+ -t 1.000000000 -s 0 -d -1 -p AODV -e 48 -c 2 -a 0 -i 0 -k RTR 
- -t 1.000000000 -s 0 -d -1 -p AODV -e 48 -c 2 -a 0 -i 0 -k RTR
h -t 1.000000000 -s 0 -d -1 -p AODV -e 48 -c 2 -a 0 -i 0 -k RTR
r -t 1.000988126 -s 5 -d -1 -p AODV -e 48 -c 2 -a 0 -i 0 -k RTR
r -t 1.000988224 -s 6 -d -1 -p AODV -e 48 -c 2 -a 0 -i 0 -k RTR
r -t 1.000988374 -s 3 -d -1 -p AODV -e 48 -c 2 -a 0 -i 0 -k RTR
r -t 1.000988749 -s 8 -d -1 -p AODV -e 48 -c 2 -a 0 -i 0 -k RTR
+ -t 1.001869353 -s 5 -d -1 -p AODV -e 48 -c 2 -a 0 -i 0 -k RTR 
- -t 1.001869353 -s 5 -d -1 -p AODV -e 48 -c 2 -a 0 -i 0 -k RTR
h -t 1.001869353 -s 5 -d -1 -p AODV -e 48 -c 2 -a 0 -i 0 -k RTR
r -t 1.003017479 -s 0 -d -1 -p AODV -e 48 -c 2 -a 0 -i 0 -k RTR
r -t 1.003017655 -s 6 -d -1 -p AODV -e 48 -c 2 -a 0 -i 0 -k RTR
r -t 1.003017852 -s 3 -d -1 -p AODV -e 48 -c 2 -a 0 -i 0 -k RTR
r -t 1.003017989 -s 8 -d -1 -p AODV -e 48 -c 2 -a 0 -i 0 -k RTR
+ -t 1.004118366 -s 8 -d -1 -p AODV -e 48 -c 2 -a 0 -i 0 -k RTR 
- -t 1.004118366 -s 8 -d -1 -p AODV -e 48 -c 2 -a 0 -i 0 -k RTR
h -t 1.004118366 -s 8 -d -1 -p AODV -e 48 -c 2 -a 0 -i 0 -k RTR
+ -t 1.005399958 -s 6 -d -1 -p AODV -e 48 -c 2 -a 0 -i 0 -k RTR 
- -t 1.005399958 -s 6 -d -1 -p AODV -e 48 -c 2 -a 0 -i 0 -k RTR
h -t 1.005399958 -s 6 -d -1 -p AODV -e 48 -c 2 -a 0 -i 0 -k RTR
r -t 1.005426591 -s 4 -d -1 -p AODV -e 48 -c 2 -a 0 -i 0 -k RTR
+ -t 1.005426591 -s 4 -d 8 -p AODV -e 44 -c 2 -a 0 -i 0 -k RTR 
- -t 1.005426591 -s 4 -d 8 -p AODV -e 44 -c 2 -a 0 -i 0 -k RTR
h -t 1.005426591 -s 4 -d 8 -p AODV -e 44 -c 2 -a 0 -i 0 -k RTR
r -t 1.005427002 -s 5 -d -1 -p AODV -e 48 -c 2 -a 0 -i 0 -k RTR
r -t 1.005427115 -s 0 -d -1 -p AODV -e 48 -c 2 -a 0 -i 0 -k RTR
+ -t 1.008979928 -s 3 -d -1 -p AODV -e 48 -c 2 -a 0 -i 0 -k RTR 
- -t 1.008979928 -s 3 -d -1 -p AODV -e 48 -c 2 -a 0 -i 0 -k RTR
h -t 1.008979928 -s 3 -d -1 -p AODV -e 48 -c 2 -a 0 -i 0 -k RTR
+ -t 1.010046164 -s 8 -d 0 -p AODV -e 44 -c 2 -a 0 -i 0 -k RTR 
- -t 1.010046164 -s 8 -d 0 -p AODV -e 44 -c 2 -a 0 -i 0 -k RTR
h -t 1.010046164 -s 8 -d 0 -p AODV -e 44 -c 2 -a 0 -i 0 -k RTR
+ -t 1.015098405 -s 0 -d 8 -p tcp -e 40 -c 2 -a 0 -i 0 -k RTR 
- -t 1.015098405 -s 0 -d 8 -p tcp -e 40 -c 2 -a 0 -i 0 -k RTR
h -t 1.015098405 -s 0 -d 8 -p tcp -e 40 -c 2 -a 0 -i 0 -k RTR
+ -t 1.017104652 -s 8 -d 4 -p tcp -e 40 -c 2 -a 0 -i 0 -k RTR 
- -t 1.017104652 -s 8 -d 4 -p tcp -e 40 -c 2 -a 0 -i 0 -k RTR
h -t 1.017104652 -s 8 -d 4 -p tcp -e 40 -c 2 -a 0 -i 0 -k RTR
r -t 1.018949326 -s 4 -d 4 -p tcp -e 40 -c 2 -a 0 -i 0 -k AGT
+ -t 1.018949326 -s 4 -d -1 -p ack -e 40 -c 2 -a 0 -i 1 -k AGT 
- -t 1.018949326 -s 4 -d -1 -p ack -e 40 -c 2 -a 0 -i 1 -k AGT
h -t 1.018949326 -s 4 -d -1 -p ack -e 40 -c 2 -a 0 -i 1 -k AGT
+ -t 1.018949326 -s 4 -d 8 -p ack -e 40 -c 2 -a 0 -i 1 -k RTR 
- -t 1.018949326 -s 4 -d 8 -p ack -e 40 -c 2 -a 0 -i 1 -k RTR
h -t 1.018949326 -s 4 -d 8 -p ack -e 40 -c 2 -a 0 -i 1 -k RTR
+ -t 1.020794000 -s 8 -d 0 -p ack -e 40 -c 2 -a 0 -i 1 -k RTR 
- -t 1.020794000 -s 8 -d 0 -p ack -e 40 -c 2 -a 0 -i 1 -k RTR
h -t 1.020794000 -s 8 -d 0 -p ack -e 40 -c 2 -a 0 -i 1 -k RTR
r -t 1.022860246 -s 0 -d 0 -p ack -e 40 -c 2 -a 0 -i 1 -k AGT
+ -t 1.022860246 -s 0 -d -1 -p tcp -e 1540 -c 2 -a 0 -i 2 -k AGT 
- -t 1.022860246 -s 0 -d -1 -p tcp -e 1540 -c 2 -a 0 -i 2 -k AGT
h -t 1.022860246 -s 0 -d -1 -p tcp -e 1540 -c 2 -a 0 -i 2 -k AGT
+ -t 1.022860246 -s 0 -d -1 -p tcp -e 1540 -c 2 -a 0 -i 3 -k AGT 
- -t 1.022860246 -s 0 -d -1 -p tcp -e 1540 -c 2 -a 0 -i 3 -k AGT
h -t 1.022860246 -s 0 -d -1 -p tcp -e 1540 -c 2 -a 0 -i 3 -k AGT
+ -t 1.022860246 -s 0 -d 8 -p tcp -e 1540 -c 2 -a 0 -i 2 -k RTR 
- -t 1.022860246 -s 0 -d 8 -p tcp -e 1540 -c 2 -a 0 -i 2 -k RTR
h -t 1.022860246 -s 0 -d 8 -p tcp -e 1540 -c 2 -a 0 -i 2 -k RTR
+ -t 1.022860246 -s 0 -d 8 -p tcp -e 1540 -c 2 -a 0 -i 3 -k RTR 
- -t 1.022860246 -s 0 -d 8 -p tcp -e 1540 -c 2 -a 0 -i 3 -k RTR
h -t 1.022860246 -s 0 -d 8 -p tcp -e 1540 -c 2 -a 0 -i 3 -k RTR
+ -t 1.036706492 -s 8 -d 4 -p tcp -e 1540 -c 2 -a 0 -i 2 -k RTR 
- -t 1.036706492 -s 8 -d 4 -p tcp -e 1540 -c 2 -a 0 -i 2 -k RTR
h -t 1.036706492 -s 8 -d 4 -p tcp -e 1540 -c 2 -a 0 -i 2 -k RTR
r -t 1.050691166 -s 4 -d 4 -p tcp -e 1540 -c 2 -a 0 -i 2 -k AGT
+ -t 1.050691166 -s 4 -d -1 -p ack -e 40 -c 2 -a 0 -i 4 -k AGT 
- -t 1.050691166 -s 4 -d -1 -p ack -e 40 -c 2 -a 0 -i 4 -k AGT
h -t 1.050691166 -s 4 -d -1 -p ack -e 40 -c 2 -a 0 -i 4 -k AGT
+ -t 1.050691166 -s 4 -d 8 -p ack -e 40 -c 2 -a 0 -i 4 -k RTR 
- -t 1.050691166 -s 4 -d 8 -p ack -e 40 -c 2 -a 0 -i 4 -k RTR
h -t 1.050691166 -s 4 -d 8 -p ack -e 40 -c 2 -a 0 -i 4 -k RTR
+ -t 1.052635840 -s 8 -d 0 -p ack -e 40 -c 2 -a 0 -i 4 -k RTR 
- -t 1.052635840 -s 8 -d 0 -p ack -e 40 -c 2 -a 0 -i 4 -k RTR
h -t 1.052635840 -s 8 -d 0 -p ack -e 40 -c 2 -a 0 -i 4 -k RTR
r -t 1.054762087 -s 0 -d 0 -p ack -e 40 -c 2 -a 0 -i 4 -k AGT
+ -t 1.054762087 -s 0 -d -1 -p tcp -e 1540 -c 2 -a 0 -i 5 -k AGT 
- -t 1.054762087 -s 0 -d -1 -p tcp -e 1540 -c 2 -a 0 -i 5 -k AGT
h -t 1.054762087 -s 0 -d -1 -p tcp -e 1540 -c 2 -a 0 -i 5 -k AGT
+ -t 1.054762087 -s 0 -d -1 -p tcp -e 1540 -c 2 -a 0 -i 6 -k AGT 
- -t 1.054762087 -s 0 -d -1 -p tcp -e 1540 -c 2 -a 0 -i 6 -k AGT
h -t 1.054762087 -s 0 -d -1 -p tcp -e 1540 -c 2 -a 0 -i 6 -k AGT
+ -t 1.054762087 -s 0 -d 8 -p tcp -e 1540 -c 2 -a 0 -i 5 -k RTR 
- -t 1.054762087 -s 0 -d 8 -p tcp -e 1540 -c 2 -a 0 -i 5 -k RTR
h -t 1.054762087 -s 0 -d 8 -p tcp -e 1540 -c 2 -a 0 -i 5 -k RTR
+ -t 1.054762087 -s 0 -d 8 -p tcp -e 1540 -c 2 -a 0 -i 6 -k RTR 
- -t 1.054762087 -s 0 -d 8 -p tcp -e 1540 -c 2 -a 0 -i 6 -k RTR
h -t 1.054762087 -s 0 -d 8 -p tcp -e 1540 -c 2 -a 0 -i 6 -k RTR
r -t 1.056144492 -s 0 -d -1 -p AODV -e 48 -c 2 -a 0 -i 0 -k RTR
r -t 1.056144570 -s 5 -d -1 -p AODV -e 48 -c 2 -a 0 -i 0 -k RTR
r -t 1.056144642 -s 3 -d -1 -p AODV -e 48 -c 2 -a 0 -i 0 -k RTR
+ -t 1.069676739 -s 8 -d 4 -p tcp -e 1540 -c 2 -a 0 -i 3 -k RTR 
- -t 1.069676739 -s 8 -d 4 -p tcp -e 1540 -c 2 -a 0 -i 3 -k RTR
h -t 1.069676739 -s 8 -d 4 -p tcp -e 1540 -c 2 -a 0 -i 3 -k RTR
r -t 1.083701413 -s 4 -d 4 -p tcp -e 1540 -c 2 -a 0 -i 3 -k AGT
+ -t 1.083701413 -s 4 -d -1 -p ack -e 40 -c 2 -a 0 -i 7 -k AGT 
- -t 1.083701413 -s 4 -d -1 -p ack -e 40 -c 2 -a 0 -i 7 -k AGT
h -t 1.083701413 -s 4 -d -1 -p ack -e 40 -c 2 -a 0 -i 7 -k AGT
+ -t 1.083701413 -s 4 -d 8 -p ack -e 40 -c 2 -a 0 -i 7 -k RTR 
- -t 1.083701413 -s 4 -d 8 -p ack -e 40 -c 2 -a 0 -i 7 -k RTR
h -t 1.083701413 -s 4 -d 8 -p ack -e 40 -c 2 -a 0 -i 7 -k RTR
+ -t 1.085646086 -s 8 -d 0 -p ack -e 40 -c 2 -a 0 -i 7 -k RTR 
- -t 1.085646086 -s 8 -d 0 -p ack -e 40 -c 2 -a 0 -i 7 -k RTR
h -t 1.085646086 -s 8 -d 0 -p ack -e 40 -c 2 -a 0 -i 7 -k RTR
+ -t 1.099623082 -s 8 -d 4 -p tcp -e 1540 -c 2 -a 0 -i 5 -k RTR 
- -t 1.099623082 -s 8 -d 4 -p tcp -e 1540 -c 2 -a 0 -i 5 -k RTR
h -t 1.099623082 -s 8 -d 4 -p tcp -e 1540 -c 2 -a 0 -i 5 -k RTR
+ -t 1.113530078 -s 8 -d 4 -p tcp -e 1540 -c 2 -a 0 -i 6 -k RTR 
- -t 1.113530078 -s 8 -d 4 -p tcp -e 1540 -c 2 -a 0 -i 6 -k RTR
h -t 1.113530078 -s 8 -d 4 -p tcp -e 1540 -c 2 -a 0 -i 6 -k RTR
r -t 1.115396326 -s 0 -d 0 -p ack -e 40 -c 2 -a 0 -i 7 -k AGT
+ -t 1.115396326 -s 0 -d -1 -p tcp -e 1540 -c 2 -a 0 -i 8 -k AGT 
- -t 1.115396326 -s 0 -d -1 -p tcp -e 1540 -c 2 -a 0 -i 8 -k AGT
h -t 1.115396326 -s 0 -d -1 -p tcp -e 1540 -c 2 -a 0 -i 8 -k AGT
+ -t 1.115396326 -s 0 -d -1 -p tcp -e 1540 -c 2 -a 0 -i 9 -k AGT 
- -t 1.115396326 -s 0 -d -1 -p tcp -e 1540 -c 2 -a 0 -i 9 -k AGT
h -t 1.115396326 -s 0 -d -1 -p tcp -e 1540 -c 2 -a 0 -i 9 -k AGT
+ -t 1.115396326 -s 0 -d 8 -p tcp -e 1540 -c 2 -a 0 -i 8 -k RTR 
- -t 1.115396326 -s 0 -d 8 -p tcp -e 1540 -c 2 -a 0 -i 8 -k RTR
h -t 1.115396326 -s 0 -d 8 -p tcp -e 1540 -c 2 -a 0 -i 8 -k RTR
+ -t 1.115396326 -s 0 -d 8 -p tcp -e 1540 -c 2 -a 0 -i 9 -k RTR 
- -t 1.115396326 -s 0 -d 8 -p tcp -e 1540 -c 2 -a 0 -i 9 -k RTR
h -t 1.115396326 -s 0 -d 8 -p tcp -e 1540 -c 2 -a 0 -i 9 -k RTR
r -t 1.116759028 -s 0 -d -1 -p AODV -e 48 -c 2 -a 0 -i 0 -k RTR
r -t 1.116759028 -s 6 -d -1 -p AODV -e 48 -c 2 -a 0 -i 0 -k RTR
r -t 1.116759153 -s 5 -d -1 -p AODV -e 48 -c 2 -a 0 -i 0 -k RTR
+ -t 1.130371276 -s 8 -d 4 -p tcp -e 1540 -c 2 -a 0 -i 8 -k RTR 
- -t 1.130371276 -s 8 -d 4 -p tcp -e 1540 -c 2 -a 0 -i 8 -k RTR
h -t 1.130371276 -s 8 -d 4 -p tcp -e 1540 -c 2 -a 0 -i 8 -k RTR
r -t 1.144255949 -s 4 -d 4 -p tcp -e 1540 -c 2 -a 0 -i 5 -k AGT
+ -t 1.144255949 -s 4 -d -1 -p ack -e 40 -c 2 -a 0 -i 10 -k AGT 
- -t 1.144255949 -s 4 -d -1 -p ack -e 40 -c 2 -a 0 -i 10 -k AGT
h -t 1.144255949 -s 4 -d -1 -p ack -e 40 -c 2 -a 0 -i 10 -k AGT
+ -t 1.144255949 -s 4 -d 8 -p ack -e 40 -c 2 -a 0 -i 10 -k RTR 
- -t 1.144255949 -s 4 -d 8 -p ack -e 40 -c 2 -a 0 -i 10 -k RTR
h -t 1.144255949 -s 4 -d 8 -p ack -e 40 -c 2 -a 0 -i 10 -k RTR
r -t 1.158280846 -s 4 -d 4 -p tcp -e 1540 -c 2 -a 0 -i 6 -k AGT
+ -t 1.158280846 -s 4 -d -1 -p ack -e 40 -c 2 -a 0 -i 11 -k AGT 
- -t 1.158280846 -s 4 -d -1 -p ack -e 40 -c 2 -a 0 -i 11 -k AGT
h -t 1.158280846 -s 4 -d -1 -p ack -e 40 -c 2 -a 0 -i 11 -k AGT
+ -t 1.158280846 -s 4 -d 8 -p ack -e 40 -c 2 -a 0 -i 11 -k RTR 
- -t 1.158280846 -s 4 -d 8 -p ack -e 40 -c 2 -a 0 -i 11 -k RTR
h -t 1.158280846 -s 4 -d 8 -p ack -e 40 -c 2 -a 0 -i 11 -k RTR
+ -t 1.160125519 -s 8 -d 0 -p ack -e 40 -c 2 -a 0 -i 10 -k RTR 
- -t 1.160125519 -s 8 -d 0 -p ack -e 40 -c 2 -a 0 -i 10 -k RTR
h -t 1.160125519 -s 8 -d 0 -p ack -e 40 -c 2 -a 0 -i 10 -k RTR
+ -t 1.162010416 -s 8 -d 0 -p ack -e 40 -c 2 -a 0 -i 11 -k RTR 
- -t 1.162010416 -s 8 -d 0 -p ack -e 40 -c 2 -a 0 -i 11 -k RTR
h -t 1.162010416 -s 8 -d 0 -p ack -e 40 -c 2 -a 0 -i 11 -k RTR
+ -t 1.176347413 -s 8 -d 4 -p tcp -e 1540 -c 2 -a 0 -i 9 -k RTR 
- -t 1.176347413 -s 8 -d 4 -p tcp -e 1540 -c 2 -a 0 -i 9 -k RTR
h -t 1.176347413 -s 8 -d 4 -p tcp -e 1540 -c 2 -a 0 -i 9 -k RTR
r -t 1.190192085 -s 4 -d 4 -p tcp -e 1540 -c 2 -a 0 -i 8 -k AGT
+ -t 1.190192085 -s 4 -d -1 -p ack -e 40 -c 2 -a 0 -i 12 -k AGT 
- -t 1.190192085 -s 4 -d -1 -p ack -e 40 -c 2 -a 0 -i 12 -k AGT
h -t 1.190192085 -s 4 -d -1 -p ack -e 40 -c 2 -a 0 -i 12 -k AGT
+ -t 1.190192085 -s 4 -d 8 -p ack -e 40 -c 2 -a 0 -i 12 -k RTR 
- -t 1.190192085 -s 4 -d 8 -p ack -e 40 -c 2 -a 0 -i 12 -k RTR
h -t 1.190192085 -s 4 -d 8 -p ack -e 40 -c 2 -a 0 -i 12 -k RTR
r -t 1.192298558 -s 0 -d 0 -p ack -e 40 -c 2 -a 0 -i 10 -k AGT
+ -t 1.192298558 -s 0 -d -1 -p tcp -e 1540 -c 2 -a 0 -i 13 -k AGT 
- -t 1.192298558 -s 0 -d -1 -p tcp -e 1540 -c 2 -a 0 -i 13 -k AGT
h -t 1.192298558 -s 0 -d -1 -p tcp -e 1540 -c 2 -a 0 -i 13 -k AGT
+ -t 1.192298558 -s 0 -d -1 -p tcp -e 1540 -c 2 -a 0 -i 14 -k AGT 
- -t 1.192298558 -s 0 -d -1 -p tcp -e 1540 -c 2 -a 0 -i 14 -k AGT
h -t 1.192298558 -s 0 -d -1 -p tcp -e 1540 -c 2 -a 0 -i 14 -k AGT
+ -t 1.192298558 -s 0 -d 8 -p tcp -e 1540 -c 2 -a 0 -i 13 -k RTR 
- -t 1.192298558 -s 0 -d 8 -p tcp -e 1540 -c 2 -a 0 -i 13 -k RTR
h -t 1.192298558 -s 0 -d 8 -p tcp -e 1540 -c 2 -a 0 -i 13 -k RTR
+ -t 1.192298558 -s 0 -d 8 -p tcp -e 1540 -c 2 -a 0 -i 14 -k RTR 
- -t 1.192298558 -s 0 -d 8 -p tcp -e 1540 -c 2 -a 0 -i 14 -k RTR
h -t 1.192298558 -s 0 -d 8 -p tcp -e 1540 -c 2 -a 0 -i 14 -k RTR
r -t 1.194305556 -s 0 -d 0 -p ack -e 40 -c 2 -a 0 -i 11 -k AGT
+ -t 1.194305556 -s 0 -d -1 -p tcp -e 1540 -c 2 -a 0 -i 15 -k AGT 
- -t 1.194305556 -s 0 -d -1 -p tcp -e 1540 -c 2 -a 0 -i 15 -k AGT
h -t 1.194305556 -s 0 -d -1 -p tcp -e 1540 -c 2 -a 0 -i 15 -k AGT
+ -t 1.194305556 -s 0 -d -1 -p tcp -e 1540 -c 2 -a 0 -i 16 -k AGT 
- -t 1.194305556 -s 0 -d -1 -p tcp -e 1540 -c 2 -a 0 -i 16 -k AGT
h -t 1.194305556 -s 0 -d -1 -p tcp -e 1540 -c 2 -a 0 -i 16 -k AGT
+ -t 1.194305556 -s 0 -d 8 -p tcp -e 1540 -c 2 -a 0 -i 15 -k RTR 
- -t 1.194305556 -s 0 -d 8 -p tcp -e 1540 -c 2 -a 0 -i 15 -k RTR
h -t 1.194305556 -s 0 -d 8 -p tcp -e 1540 -c 2 -a 0 -i 15 -k RTR
+ -t 1.194305556 -s 0 -d 8 -p tcp -e 1540 -c 2 -a 0 -i 16 -k RTR 
- -t 1.194305556 -s 0 -d 8 -p tcp -e 1540 -c 2 -a 0 -i 16 -k RTR
h -t 1.194305556 -s 0 -d 8 -p tcp -e 1540 -c 2 -a 0 -i 16 -k RTR
+ -t 1.208271805 -s 8 -d 4 -p tcp -e 1540 -c 2 -a 0 -i 13 -k RTR 
- -t 1.208271805 -s 8 -d 4 -p tcp -e 1540 -c 2 -a 0 -i 13 -k RTR
h -t 1.208271805 -s 8 -d 4 -p tcp -e 1540 -c 2 -a 0 -i 13 -k RTR
r -t 1.222236477 -s 4 -d 4 -p tcp -e 1540 -c 2 -a 0 -i 9 -k AGT
+ -t 1.222236477 -s 4 -d -1 -p ack -e 40 -c 2 -a 0 -i 17 -k AGT 
- -t 1.222236477 -s 4 -d -1 -p ack -e 40 -c 2 -a 0 -i 17 -k AGT
h -t 1.222236477 -s 4 -d -1 -p ack -e 40 -c 2 -a 0 -i 17 -k AGT
+ -t 1.222236477 -s 4 -d 8 -p ack -e 40 -c 2 -a 0 -i 17 -k RTR 
- -t 1.222236477 -s 4 -d 8 -p ack -e 40 -c 2 -a 0 -i 17 -k RTR
h -t 1.222236477 -s 4 -d 8 -p ack -e 40 -c 2 -a 0 -i 17 -k RTR
r -t 1.236061374 -s 4 -d 4 -p tcp -e 1540 -c 2 -a 0 -i 13 -k AGT
+ -t 1.236061374 -s 4 -d -1 -p ack -e 40 -c 2 -a 0 -i 18 -k AGT 
- -t 1.236061374 -s 4 -d -1 -p ack -e 40 -c 2 -a 0 -i 18 -k AGT
h -t 1.236061374 -s 4 -d -1 -p ack -e 40 -c 2 -a 0 -i 18 -k AGT
+ -t 1.236061374 -s 4 -d 8 -p ack -e 40 -c 2 -a 0 -i 18 -k RTR 
- -t 1.236061374 -s 4 -d 8 -p ack -e 40 -c 2 -a 0 -i 18 -k RTR
h -t 1.236061374 -s 4 -d 8 -p ack -e 40 -c 2 -a 0 -i 18 -k RTR
+ -t 1.238026046 -s 8 -d 0 -p ack -e 40 -c 2 -a 0 -i 12 -k RTR 
- -t 1.238026046 -s 8 -d 0 -p ack -e 40 -c 2 -a 0 -i 12 -k RTR
h -t 1.238026046 -s 8 -d 0 -p ack -e 40 -c 2 -a 0 -i 12 -k RTR
r -t 1.239952295 -s 0 -d 0 -p ack -e 40 -c 2 -a 0 -i 12 -k AGT
+ -t 1.239952295 -s 0 -d -1 -p tcp -e 1540 -c 2 -a 0 -i 19 -k AGT 
- -t 1.239952295 -s 0 -d -1 -p tcp -e 1540 -c 2 -a 0 -i 19 -k AGT
h -t 1.239952295 -s 0 -d -1 -p tcp -e 1540 -c 2 -a 0 -i 19 -k AGT
+ -t 1.239952295 -s 0 -d -1 -p tcp -e 1540 -c 2 -a 0 -i 20 -k AGT 
- -t 1.239952295 -s 0 -d -1 -p tcp -e 1540 -c 2 -a 0 -i 20 -k AGT
h -t 1.239952295 -s 0 -d -1 -p tcp -e 1540 -c 2 -a 0 -i 20 -k AGT
+ -t 1.239952295 -s 0 -d 8 -p tcp -e 1540 -c 2 -a 0 -i 19 -k RTR 
- -t 1.239952295 -s 0 -d 8 -p tcp -e 1540 -c 2 -a 0 -i 19 -k RTR
h -t 1.239952295 -s 0 -d 8 -p tcp -e 1540 -c 2 -a 0 -i 19 -k RTR
+ -t 1.239952295 -s 0 -d 8 -p tcp -e 1540 -c 2 -a 0 -i 20 -k RTR 
- -t 1.239952295 -s 0 -d 8 -p tcp -e 1540 -c 2 -a 0 -i 20 -k RTR
h -t 1.239952295 -s 0 -d 8 -p tcp -e 1540 -c 2 -a 0 -i 20 -k RTR
+ -t 1.254078544 -s 8 -d 4 -p tcp -e 1540 -c 2 -a 0 -i 14 -k RTR 
- -t 1.254078544 -s 8 -d 4 -p tcp -e 1540 -c 2 -a 0 -i 14 -k RTR
h -t 1.254078544 -s 8 -d 4 -p tcp -e 1540 -c 2 -a 0 -i 14 -k RTR
+ -t 1.267985543 -s 8 -d 4 -p tcp -e 1540 -c 2 -a 0 -i 15 -k RTR 
- -t 1.267985543 -s 8 -d 4 -p tcp -e 1540 -c 2 -a 0 -i 15 -k RTR
h -t 1.267985543 -s 8 -d 4 -p tcp -e 1540 -c 2 -a 0 -i 15 -k RTR
r -t 1.281950215 -s 4 -d 4 -p tcp -e 1540 -c 2 -a 0 -i 14 -k AGT
+ -t 1.281950215 -s 4 -d -1 -p ack -e 40 -c 2 -a 0 -i 21 -k AGT 
- -t 1.281950215 -s 4 -d -1 -p ack -e 40 -c 2 -a 0 -i 21 -k AGT
h -t 1.281950215 -s 4 -d -1 -p ack -e 40 -c 2 -a 0 -i 21 -k AGT
+ -t 1.281950215 -s 4 -d 8 -p ack -e 40 -c 2 -a 0 -i 21 -k RTR 
- -t 1.281950215 -s 4 -d 8 -p ack -e 40 -c 2 -a 0 -i 21 -k RTR
h -t 1.281950215 -s 4 -d 8 -p ack -e 40 -c 2 -a 0 -i 21 -k RTR
r -t 1.295775111 -s 4 -d 4 -p tcp -e 1540 -c 2 -a 0 -i 15 -k AGT
+ -t 1.295775111 -s 4 -d -1 -p ack -e 40 -c 2 -a 0 -i 22 -k AGT 
- -t 1.295775111 -s 4 -d -1 -p ack -e 40 -c 2 -a 0 -i 22 -k AGT
h -t 1.295775111 -s 4 -d -1 -p ack -e 40 -c 2 -a 0 -i 22 -k AGT
+ -t 1.295775111 -s 4 -d 8 -p ack -e 40 -c 2 -a 0 -i 22 -k RTR 
- -t 1.295775111 -s 4 -d 8 -p ack -e 40 -c 2 -a 0 -i 22 -k RTR
h -t 1.295775111 -s 4 -d 8 -p ack -e 40 -c 2 -a 0 -i 22 -k RTR
+ -t 1.297739782 -s 8 -d 0 -p ack -e 40 -c 2 -a 0 -i 17 -k RTR 
- -t 1.297739782 -s 8 -d 0 -p ack -e 40 -c 2 -a 0 -i 17 -k RTR
h -t 1.297739782 -s 8 -d 0 -p ack -e 40 -c 2 -a 0 -i 17 -k RTR
r -t 1.299686032 -s 0 -d 0 -p ack -e 40 -c 2 -a 0 -i 17 -k AGT
+ -t 1.299686032 -s 0 -d -1 -p tcp -e 1540 -c 2 -a 0 -i 23 -k AGT 
- -t 1.299686032 -s 0 -d -1 -p tcp -e 1540 -c 2 -a 0 -i 23 -k AGT
h -t 1.299686032 -s 0 -d -1 -p tcp -e 1540 -c 2 -a 0 -i 23 -k AGT
+ -t 1.299686032 -s 0 -d -1 -p tcp -e 1540 -c 2 -a 0 -i 24 -k AGT 
- -t 1.299686032 -s 0 -d -1 -p tcp -e 1540 -c 2 -a 0 -i 24 -k AGT
h -t 1.299686032 -s 0 -d -1 -p tcp -e 1540 -c 2 -a 0 -i 24 -k AGT
+ -t 1.299686032 -s 0 -d 8 -p tcp -e 1540 -c 2 -a 0 -i 23 -k RTR 
- -t 1.299686032 -s 0 -d 8 -p tcp -e 1540 -c 2 -a 0 -i 23 -k RTR
h -t 1.299686032 -s 0 -d 8 -p tcp -e 1540 -c 2 -a 0 -i 23 -k RTR
+ -t 1.299686032 -s 0 -d 8 -p tcp -e 1540 -c 2 -a 0 -i 24 -k RTR 
- -t 1.299686032 -s 0 -d 8 -p tcp -e 1540 -c 2 -a 0 -i 24 -k RTR
h -t 1.299686032 -s 0 -d 8 -p tcp -e 1540 -c 2 -a 0 -i 24 -k RTR
+ -t 1.313612282 -s 8 -d 4 -p tcp -e 1540 -c 2 -a 0 -i 16 -k RTR 
- -t 1.313612282 -s 8 -d 4 -p tcp -e 1540 -c 2 -a 0 -i 16 -k RTR
h -t 1.313612282 -s 8 -d 4 -p tcp -e 1540 -c 2 -a 0 -i 16 -k RTR
+ -t 1.327459282 -s 8 -d 4 -p tcp -e 1540 -c 2 -a 0 -i 19 -k RTR 
- -t 1.327459282 -s 8 -d 4 -p tcp -e 1540 -c 2 -a 0 -i 19 -k RTR
h -t 1.327459282 -s 8 -d 4 -p tcp -e 1540 -c 2 -a 0 -i 19 -k RTR
r -t 1.341443954 -s 4 -d 4 -p tcp -e 1540 -c 2 -a 0 -i 16 -k AGT
+ -t 1.341443954 -s 4 -d -1 -p ack -e 40 -c 2 -a 0 -i 25 -k AGT 
- -t 1.341443954 -s 4 -d -1 -p ack -e 40 -c 2 -a 0 -i 25 -k AGT
h -t 1.341443954 -s 4 -d -1 -p ack -e 40 -c 2 -a 0 -i 25 -k AGT
+ -t 1.341443954 -s 4 -d 8 -p ack -e 40 -c 2 -a 0 -i 25 -k RTR 
- -t 1.341443954 -s 4 -d 8 -p ack -e 40 -c 2 -a 0 -i 25 -k RTR
h -t 1.341443954 -s 4 -d 8 -p ack -e 40 -c 2 -a 0 -i 25 -k RTR
+ -t 1.343368625 -s 8 -d 0 -p ack -e 40 -c 2 -a 0 -i 18 -k RTR 
- -t 1.343368625 -s 8 -d 0 -p ack -e 40 -c 2 -a 0 -i 18 -k RTR
h -t 1.343368625 -s 8 -d 0 -p ack -e 40 -c 2 -a 0 -i 18 -k RTR
+ -t 1.345313520 -s 8 -d 0 -p ack -e 40 -c 2 -a 0 -i 21 -k RTR 
- -t 1.345313520 -s 8 -d 0 -p ack -e 40 -c 2 -a 0 -i 21 -k RTR
h -t 1.345313520 -s 8 -d 0 -p ack -e 40 -c 2 -a 0 -i 21 -k RTR
r -t 1.359178192 -s 4 -d 4 -p tcp -e 1540 -c 2 -a 0 -i 19 -k AGT
+ -t 1.359178192 -s 4 -d -1 -p ack -e 40 -c 2 -a 0 -i 26 -k AGT 
- -t 1.359178192 -s 4 -d -1 -p ack -e 40 -c 2 -a 0 -i 26 -k AGT
h -t 1.359178192 -s 4 -d -1 -p ack -e 40 -c 2 -a 0 -i 26 -k AGT
+ -t 1.359178192 -s 4 -d 8 -p ack -e 40 -c 2 -a 0 -i 26 -k RTR 
- -t 1.359178192 -s 4 -d 8 -p ack -e 40 -c 2 -a 0 -i 26 -k RTR
h -t 1.359178192 -s 4 -d 8 -p ack -e 40 -c 2 -a 0 -i 26 -k RTR
r -t 1.361044666 -s 0 -d 0 -p ack -e 40 -c 2 -a 0 -i 18 -k AGT
+ -t 1.361044666 -s 0 -d -1 -p tcp -e 1540 -c 2 -a 0 -i 27 -k AGT 
- -t 1.361044666 -s 0 -d -1 -p tcp -e 1540 -c 2 -a 0 -i 27 -k AGT
h -t 1.361044666 -s 0 -d -1 -p tcp -e 1540 -c 2 -a 0 -i 27 -k AGT
+ -t 1.361044666 -s 0 -d -1 -p tcp -e 1540 -c 2 -a 0 -i 28 -k AGT 
- -t 1.361044666 -s 0 -d -1 -p tcp -e 1540 -c 2 -a 0 -i 28 -k AGT
h -t 1.361044666 -s 0 -d -1 -p tcp -e 1540 -c 2 -a 0 -i 28 -k AGT
+ -t 1.361044666 -s 0 -d 8 -p tcp -e 1540 -c 2 -a 0 -i 27 -k RTR 
- -t 1.361044666 -s 0 -d 8 -p tcp -e 1540 -c 2 -a 0 -i 27 -k RTR
h -t 1.361044666 -s 0 -d 8 -p tcp -e 1540 -c 2 -a 0 -i 27 -k RTR
+ -t 1.361044666 -s 0 -d 8 -p tcp -e 1540 -c 2 -a 0 -i 28 -k RTR 
- -t 1.361044666 -s 0 -d 8 -p tcp -e 1540 -c 2 -a 0 -i 28 -k RTR
h -t 1.361044666 -s 0 -d 8 -p tcp -e 1540 -c 2 -a 0 -i 28 -k RTR
+ -t 1.375130917 -s 8 -d 4 -p tcp -e 1540 -c 2 -a 0 -i 20 -k RTR 
- -t 1.375130917 -s 8 -d 4 -p tcp -e 1540 -c 2 -a 0 -i 20 -k RTR
h -t 1.375130917 -s 8 -d 4 -p tcp -e 1540 -c 2 -a 0 -i 20 -k RTR
+ -t 1.389077918 -s 8 -d 4 -p tcp -e 1540 -c 2 -a 0 -i 23 -k RTR 
- -t 1.389077918 -s 8 -d 4 -p tcp -e 1540 -c 2 -a 0 -i 23 -k RTR
h -t 1.389077918 -s 8 -d 4 -p tcp -e 1540 -c 2 -a 0 -i 23 -k RTR
r -t 1.390984169 -s 0 -d 0 -p ack -e 40 -c 2 -a 0 -i 21 -k AGT
+ -t 1.390984169 -s 0 -d -1 -p tcp -e 1540 -c 2 -a 0 -i 29 -k AGT 
- -t 1.390984169 -s 0 -d -1 -p tcp -e 1540 -c 2 -a 0 -i 29 -k AGT
h -t 1.390984169 -s 0 -d -1 -p tcp -e 1540 -c 2 -a 0 -i 29 -k AGT
+ -t 1.390984169 -s 0 -d -1 -p tcp -e 1540 -c 2 -a 0 -i 30 -k AGT 
- -t 1.390984169 -s 0 -d -1 -p tcp -e 1540 -c 2 -a 0 -i 30 -k AGT
h -t 1.390984169 -s 0 -d -1 -p tcp -e 1540 -c 2 -a 0 -i 30 -k AGT
+ -t 1.390984169 -s 0 -d 8 -p tcp -e 1540 -c 2 -a 0 -i 29 -k RTR 
- -t 1.390984169 -s 0 -d 8 -p tcp -e 1540 -c 2 -a 0 -i 29 -k RTR
h -t 1.390984169 -s 0 -d 8 -p tcp -e 1540 -c 2 -a 0 -i 29 -k RTR
+ -t 1.390984169 -s 0 -d 8 -p tcp -e 1540 -c 2 -a 0 -i 30 -k RTR 
- -t 1.390984169 -s 0 -d 8 -p tcp -e 1540 -c 2 -a 0 -i 30 -k RTR
h -t 1.390984169 -s 0 -d 8 -p tcp -e 1540 -c 2 -a 0 -i 30 -k RTR
r -t 1.404909590 -s 4 -d 4 -p tcp -e 1540 -c 2 -a 0 -i 20 -k AGT
+ -t 1.404909590 -s 4 -d -1 -p ack -e 40 -c 2 -a 0 -i 31 -k AGT 
- -t 1.404909590 -s 4 -d -1 -p ack -e 40 -c 2 -a 0 -i 31 -k AGT
h -t 1.404909590 -s 4 -d -1 -p ack -e 40 -c 2 -a 0 -i 31 -k AGT
+ -t 1.404909590 -s 4 -d 8 -p ack -e 40 -c 2 -a 0 -i 31 -k RTR 
- -t 1.404909590 -s 4 -d 8 -p ack -e 40 -c 2 -a 0 -i 31 -k RTR
h -t 1.404909590 -s 4 -d 8 -p ack -e 40 -c 2 -a 0 -i 31 -k RTR
r -t 1.418814485 -s 4 -d 4 -p tcp -e 1540 -c 2 -a 0 -i 23 -k AGT
+ -t 1.418814485 -s 4 -d -1 -p ack -e 40 -c 2 -a 0 -i 32 -k AGT 
- -t 1.418814485 -s 4 -d -1 -p ack -e 40 -c 2 -a 0 -i 32 -k AGT
h -t 1.418814485 -s 4 -d -1 -p ack -e 40 -c 2 -a 0 -i 32 -k AGT
+ -t 1.418814485 -s 4 -d 8 -p ack -e 40 -c 2 -a 0 -i 32 -k RTR 
- -t 1.418814485 -s 4 -d 8 -p ack -e 40 -c 2 -a 0 -i 32 -k RTR
h -t 1.418814485 -s 4 -d 8 -p ack -e 40 -c 2 -a 0 -i 32 -k RTR
+ -t 1.420719155 -s 8 -d 0 -p ack -e 40 -c 2 -a 0 -i 22 -k RTR 
- -t 1.420719155 -s 8 -d 0 -p ack -e 40 -c 2 -a 0 -i 22 -k RTR
h -t 1.420719155 -s 8 -d 0 -p ack -e 40 -c 2 -a 0 -i 22 -k RTR
+ -t 1.434616156 -s 8 -d 4 -p tcp -e 1540 -c 2 -a 0 -i 24 -k RTR 
- -t 1.434616156 -s 8 -d 4 -p tcp -e 1540 -c 2 -a 0 -i 24 -k RTR
h -t 1.434616156 -s 8 -d 4 -p tcp -e 1540 -c 2 -a 0 -i 24 -k RTR
+ -t 1.448503158 -s 8 -d 4 -p tcp -e 1540 -c 2 -a 0 -i 27 -k RTR 
- -t 1.448503158 -s 8 -d 4 -p tcp -e 1540 -c 2 -a 0 -i 27 -k RTR
h -t 1.448503158 -s 8 -d 4 -p tcp -e 1540 -c 2 -a 0 -i 27 -k RTR
r -t 1.450409410 -s 0 -d 0 -p ack -e 40 -c 2 -a 0 -i 22 -k AGT
+ -t 1.450409410 -s 0 -d -1 -p tcp -e 1540 -c 2 -a 0 -i 33 -k AGT 
- -t 1.450409410 -s 0 -d -1 -p tcp -e 1540 -c 2 -a 0 -i 33 -k AGT
h -t 1.450409410 -s 0 -d -1 -p tcp -e 1540 -c 2 -a 0 -i 33 -k AGT
+ -t 1.450409410 -s 0 -d -1 -p tcp -e 1540 -c 2 -a 0 -i 34 -k AGT 
- -t 1.450409410 -s 0 -d -1 -p tcp -e 1540 -c 2 -a 0 -i 34 -k AGT
h -t 1.450409410 -s 0 -d -1 -p tcp -e 1540 -c 2 -a 0 -i 34 -k AGT
+ -t 1.450409410 -s 0 -d 8 -p tcp -e 1540 -c 2 -a 0 -i 33 -k RTR 
- -t 1.450409410 -s 0 -d 8 -p tcp -e 1540 -c 2 -a 0 -i 33 -k RTR
h -t 1.450409410 -s 0 -d 8 -p tcp -e 1540 -c 2 -a 0 -i 33 -k RTR
+ -t 1.450409410 -s 0 -d 8 -p tcp -e 1540 -c 2 -a 0 -i 34 -k RTR 
- -t 1.450409410 -s 0 -d 8 -p tcp -e 1540 -c 2 -a 0 -i 34 -k RTR
h -t 1.450409410 -s 0 -d 8 -p tcp -e 1540 -c 2 -a 0 -i 34 -k RTR
+ -t 1.464495662 -s 8 -d 4 -p tcp -e 1540 -c 2 -a 0 -i 28 -k RTR 
- -t 1.464495662 -s 8 -d 4 -p tcp -e 1540 -c 2 -a 0 -i 28 -k RTR
h -t 1.464495662 -s 8 -d 4 -p tcp -e 1540 -c 2 -a 0 -i 28 -k RTR
+ -t 1.478442665 -s 8 -d 4 -p tcp -e 1540 -c 2 -a 0 -i 29 -k RTR 
- -t 1.478442665 -s 8 -d 4 -p tcp -e 1540 -c 2 -a 0 -i 29 -k RTR
h -t 1.478442665 -s 8 -d 4 -p tcp -e 1540 -c 2 -a 0 -i 29 -k RTR
+ -t 1.492329668 -s 8 -d 4 -p tcp -e 1540 -c 2 -a 0 -i 30 -k RTR 
- -t 1.492329668 -s 8 -d 4 -p tcp -e 1540 -c 2 -a 0 -i 30 -k RTR
h -t 1.492329668 -s 8 -d 4 -p tcp -e 1540 -c 2 -a 0 -i 30 -k RTR
+ -t 1.494264560 -s 8 -d 0 -p ack -e 40 -c 2 -a 0 -i 25 -k RTR 
- -t 1.494264560 -s 8 -d 0 -p ack -e 40 -c 2 -a 0 -i 25 -k RTR
h -t 1.494264560 -s 8 -d 0 -p ack -e 40 -c 2 -a 0 -i 25 -k RTR
r -t 1.508149230 -s 4 -d 4 -p tcp -e 1540 -c 2 -a 0 -i 24 -k AGT
+ -t 1.508149230 -s 4 -d -1 -p ack -e 40 -c 2 -a 0 -i 35 -k AGT 
- -t 1.508149230 -s 4 -d -1 -p ack -e 40 -c 2 -a 0 -i 35 -k AGT
h -t 1.508149230 -s 4 -d -1 -p ack -e 40 -c 2 -a 0 -i 35 -k AGT
+ -t 1.508149230 -s 4 -d 8 -p ack -e 40 -c 2 -a 0 -i 35 -k RTR 
- -t 1.508149230 -s 4 -d 8 -p ack -e 40 -c 2 -a 0 -i 35 -k RTR
h -t 1.508149230 -s 4 -d 8 -p ack -e 40 -c 2 -a 0 -i 35 -k RTR
+ -t 1.510053901 -s 8 -d 0 -p ack -e 40 -c 2 -a 0 -i 26 -k RTR 
- -t 1.510053901 -s 8 -d 0 -p ack -e 40 -c 2 -a 0 -i 26 -k RTR
h -t 1.510053901 -s 8 -d 0 -p ack -e 40 -c 2 -a 0 -i 26 -k RTR
+ -t 1.512318794 -s 8 -d 0 -p ack -e 40 -c 2 -a 0 -i 31 -k RTR 
- -t 1.512318794 -s 8 -d 0 -p ack -e 40 -c 2 -a 0 -i 31 -k RTR
h -t 1.512318794 -s 8 -d 0 -p ack -e 40 -c 2 -a 0 -i 31 -k RTR
r -t 1.526243464 -s 4 -d 4 -p tcp -e 1540 -c 2 -a 0 -i 27 -k AGT
+ -t 1.526243464 -s 4 -d -1 -p ack -e 40 -c 2 -a 0 -i 36 -k AGT 
- -t 1.526243464 -s 4 -d -1 -p ack -e 40 -c 2 -a 0 -i 36 -k AGT
h -t 1.526243464 -s 4 -d -1 -p ack -e 40 -c 2 -a 0 -i 36 -k AGT
+ -t 1.526243464 -s 4 -d 8 -p ack -e 40 -c 2 -a 0 -i 36 -k RTR 
- -t 1.526243464 -s 4 -d 8 -p ack -e 40 -c 2 -a 0 -i 36 -k RTR
h -t 1.526243464 -s 4 -d 8 -p ack -e 40 -c 2 -a 0 -i 36 -k RTR
r -t 1.540368357 -s 4 -d 4 -p tcp -e 1540 -c 2 -a 0 -i 28 -k AGT
+ -t 1.540368357 -s 4 -d -1 -p ack -e 40 -c 2 -a 0 -i 37 -k AGT 
- -t 1.540368357 -s 4 -d -1 -p ack -e 40 -c 2 -a 0 -i 37 -k AGT
h -t 1.540368357 -s 4 -d -1 -p ack -e 40 -c 2 -a 0 -i 37 -k AGT
+ -t 1.540368357 -s 4 -d 8 -p ack -e 40 -c 2 -a 0 -i 37 -k RTR 
- -t 1.540368357 -s 4 -d 8 -p ack -e 40 -c 2 -a 0 -i 37 -k RTR
h -t 1.540368357 -s 4 -d 8 -p ack -e 40 -c 2 -a 0 -i 37 -k RTR
+ -t 1.542353027 -s 8 -d 0 -p ack -e 40 -c 2 -a 0 -i 32 -k RTR 
- -t 1.542353027 -s 8 -d 0 -p ack -e 40 -c 2 -a 0 -i 32 -k RTR
h -t 1.542353027 -s 8 -d 0 -p ack -e 40 -c 2 -a 0 -i 32 -k RTR
+ -t 1.556290030 -s 8 -d 4 -p tcp -e 1540 -c 2 -a 0 -i 33 -k RTR 
- -t 1.556290030 -s 8 -d 4 -p tcp -e 1540 -c 2 -a 0 -i 33 -k RTR
h -t 1.556290030 -s 8 -d 4 -p tcp -e 1540 -c 2 -a 0 -i 33 -k RTR
r -t 1.570174700 -s 4 -d 4 -p tcp -e 1540 -c 2 -a 0 -i 29 -k AGT
+ -t 1.570174700 -s 4 -d -1 -p ack -e 40 -c 2 -a 0 -i 38 -k AGT 
- -t 1.570174700 -s 4 -d -1 -p ack -e 40 -c 2 -a 0 -i 38 -k AGT
h -t 1.570174700 -s 4 -d -1 -p ack -e 40 -c 2 -a 0 -i 38 -k AGT
+ -t 1.570174700 -s 4 -d 8 -p ack -e 40 -c 2 -a 0 -i 38 -k RTR 
- -t 1.570174700 -s 4 -d 8 -p ack -e 40 -c 2 -a 0 -i 38 -k RTR
h -t 1.570174700 -s 4 -d 8 -p ack -e 40 -c 2 -a 0 -i 38 -k RTR
r -t 1.584039593 -s 4 -d 4 -p tcp -e 1540 -c 2 -a 0 -i 30 -k AGT
+ -t 1.584039593 -s 4 -d -1 -p ack -e 40 -c 2 -a 0 -i 39 -k AGT 
- -t 1.584039593 -s 4 -d -1 -p ack -e 40 -c 2 -a 0 -i 39 -k AGT
h -t 1.584039593 -s 4 -d -1 -p ack -e 40 -c 2 -a 0 -i 39 -k AGT
+ -t 1.584039593 -s 4 -d 8 -p ack -e 40 -c 2 -a 0 -i 39 -k RTR 
- -t 1.584039593 -s 4 -d 8 -p ack -e 40 -c 2 -a 0 -i 39 -k RTR
h -t 1.584039593 -s 4 -d 8 -p ack -e 40 -c 2 -a 0 -i 39 -k RTR
+ -t 1.586024262 -s 8 -d 0 -p ack -e 40 -c 2 -a 0 -i 35 -k RTR 
- -t 1.586024262 -s 8 -d 0 -p ack -e 40 -c 2 -a 0 -i 35 -k RTR
h -t 1.586024262 -s 8 -d 0 -p ack -e 40 -c 2 -a 0 -i 35 -k RTR
+ -t 1.588069155 -s 8 -d 0 -p ack -e 40 -c 2 -a 0 -i 36 -k RTR 
- -t 1.588069155 -s 8 -d 0 -p ack -e 40 -c 2 -a 0 -i 36 -k RTR
h -t 1.588069155 -s 8 -d 0 -p ack -e 40 -c 2 -a 0 -i 36 -k RTR
+ -t 1.602066159 -s 8 -d 4 -p tcp -e 1540 -c 2 -a 0 -i 34 -k RTR 
- -t 1.602066159 -s 8 -d 4 -p tcp -e 1540 -c 2 -a 0 -i 34 -k RTR
h -t 1.602066159 -s 8 -d 4 -p tcp -e 1540 -c 2 -a 0 -i 34 -k RTR
r -t 1.603952413 -s 0 -d 0 -p ack -e 40 -c 2 -a 0 -i 25 -k AGT
+ -t 1.603952413 -s 0 -d -1 -p tcp -e 1540 -c 2 -a 0 -i 40 -k AGT 
- -t 1.603952413 -s 0 -d -1 -p tcp -e 1540 -c 2 -a 0 -i 40 -k AGT
h -t 1.603952413 -s 0 -d -1 -p tcp -e 1540 -c 2 -a 0 -i 40 -k AGT
+ -t 1.603952413 -s 0 -d -1 -p tcp -e 1540 -c 2 -a 0 -i 41 -k AGT 
- -t 1.603952413 -s 0 -d -1 -p tcp -e 1540 -c 2 -a 0 -i 41 -k AGT
h -t 1.603952413 -s 0 -d -1 -p tcp -e 1540 -c 2 -a 0 -i 41 -k AGT
+ -t 1.603952413 -s 0 -d 8 -p tcp -e 1540 -c 2 -a 0 -i 40 -k RTR 
- -t 1.603952413 -s 0 -d 8 -p tcp -e 1540 -c 2 -a 0 -i 40 -k RTR
h -t 1.603952413 -s 0 -d 8 -p tcp -e 1540 -c 2 -a 0 -i 40 -k RTR
+ -t 1.603952413 -s 0 -d 8 -p tcp -e 1540 -c 2 -a 0 -i 41 -k RTR 
- -t 1.603952413 -s 0 -d 8 -p tcp -e 1540 -c 2 -a 0 -i 41 -k RTR
h -t 1.603952413 -s 0 -d 8 -p tcp -e 1540 -c 2 -a 0 -i 41 -k RTR
+ -t 1.617878666 -s 8 -d 4 -p tcp -e 1540 -c 2 -a 0 -i 40 -k RTR 
- -t 1.617878666 -s 8 -d 4 -p tcp -e 1540 -c 2 -a 0 -i 40 -k RTR
h -t 1.617878666 -s 8 -d 4 -p tcp -e 1540 -c 2 -a 0 -i 40 -k RTR
+ -t 1.619773558 -s 8 -d 0 -p ack -e 40 -c 2 -a 0 -i 37 -k RTR 
- -t 1.619773558 -s 8 -d 0 -p ack -e 40 -c 2 -a 0 -i 37 -k RTR
h -t 1.619773558 -s 8 -d 0 -p ack -e 40 -c 2 -a 0 -i 37 -k RTR
+ -t 1.621718450 -s 8 -d 0 -p ack -e 40 -c 2 -a 0 -i 38 -k RTR 
- -t 1.621718450 -s 8 -d 0 -p ack -e 40 -c 2 -a 0 -i 38 -k RTR
h -t 1.621718450 -s 8 -d 0 -p ack -e 40 -c 2 -a 0 -i 38 -k RTR
r -t 1.623704704 -s 0 -d 0 -p ack -e 40 -c 2 -a 0 -i 26 -k AGT