s 0.010000000 _0_ AGT  --- 0 tcp 40 [0 0 0 0] ------- [0:0 9:0 32 0] [0 0] 0 0
r 0.010000000 _0_ RTR  --- 0 tcp 40 [0 0 0 0] ------- [0:0 9:0 32 0] [0 0] 0 0
s 0.010000000 _1_ AGT  --- 1 tcp 40 [0 0 0 0] ------- [1:0 8:0 32 0] [0 0] 0 0
r 0.010000000 _1_ RTR  --- 1 tcp 40 [0 0 0 0] ------- [1:0 8:0 32 0] [0 0] 0 0
s 0.010000000 _2_ AGT  --- 2 tcp 40 [0 0 0 0] ------- [2:0 7:0 32 0] [0 0] 0 0
r 0.010000000 _2_ RTR  --- 2 tcp 40 [0 0 0 0] ------- [2:0 7:0 32 0] [0 0] 0 0
s 0.010000000 _3_ AGT  --- 3 tcp 40 [0 0 0 0] ------- [3:0 6:0 32 0] [0 0] 0 0
r 0.010000000 _3_ RTR  --- 3 tcp 40 [0 0 0 0] ------- [3:0 6:0 32 0] [0 0] 0 0
s 0.010000000 _4_ AGT  --- 4 tcp 40 [0 0 0 0] ------- [4:0 5:0 32 0] [0 0] 0 0
r 0.010000000 _4_ RTR  --- 4 tcp 40 [0 0 0 0] ------- [4:0 5:0 32 0] [0 0] 0 0
s 0.010000000 _0_ RTR  --- 0 AODV 48 [0 0 0 0] ------- [0:255 -1:255 30 0] [0x2 1 1 [9 0] [0 4]] (REQUEST)
s 0.010000000 _1_ RTR  --- 0 AODV 48 [0 0 0 0] ------- [1:255 -1:255 30 0] [0x2 1 1 [8 0] [1 4]] (REQUEST)
s 0.010000000 _2_ RTR  --- 0 AODV 48 [0 0 0 0] ------- [2:255 -1:255 30 0] [0x2 1 1 [7 0] [2 4]] (REQUEST)
s 0.010000000 _3_ RTR  --- 0 AODV 48 [0 0 0 0] ------- [3:255 -1:255 30 0] [0x2 1 1 [6 0] [3 4]] (REQUEST)
s 0.010000000 _4_ RTR  --- 0 AODV 48 [0 0 0 0] ------- [4:255 -1:255 30 0] [0x2 1 1 [5 0] [4 4]] (REQUEST)
r 0.010948198 _14_ RTR  --- 0 AODV 48 [0 ffffffff 0 800] ------- [0:255 -1:255 30 0] [0x2 1 1 [9 0] [0 4]] (REQUEST)
r 0.010948286 _9_ RTR  --- 0 AODV 48 [0 ffffffff 0 800] ------- [0:255 -1:255 30 0] [0x2 1 1 [9 0] [0 4]] (REQUEST)
s 0.010948286 _9_ RTR  --- 0 AODV 44 [0 0 0 0] ------- [9:255 0:255 30 0] [0x4 1 [9 4] 10.000000] (REPLY)
r 0.010948531 _18_ RTR  --- 0 AODV 48 [0 ffffffff 0 800] ------- [0:255 -1:255 30 0] [0x2 1 1 [9 0] [0 4]] (REQUEST)
r 0.010948715 _11_ RTR  --- 0 AODV 48 [0 ffffffff 0 800] ------- [0:255 -1:255 30 0] [0x2 1 1 [9 0] [0 4]] (REQUEST)
r 0.011188244 _19_ RTR  --- 0 AODV 48 [0 ffffffff 3 800] ------- [3:255 -1:255 30 0] [0x2 1 1 [6 0] [3 4]] (REQUEST)
s 0.011376661 _11_ RTR  --- 0 AODV 48 [0 ffffffff 0 800] ------- [11:255 -1:255 29 0] [0x2 2 1 [9 0] [0 4]] (REQUEST)
s 0.012589985 _18_ RTR  --- 0 AODV 48 [0 ffffffff 0 800] ------- [18:255 -1:255 29 0] [0x2 2 1 [9 0] [0 4]] (REQUEST)
r 0.012810620 _3_ RTR  --- 0 AODV 48 [0 ffffffff 4 800] ------- [4:255 -1:255 30 0] [0x2 1 1 [5 0] [4 4]] (REQUEST)
r 0.012810838 _8_ RTR  --- 0 AODV 48 [0 ffffffff 4 800] ------- [4:255 -1:255 30 0] [0x2 1 1 [5 0] [4 4]] (REQUEST)
r 0.012810847 _10_ RTR  --- 0 AODV 48 [0 ffffffff 4 800] ------- [4:255 -1:255 30 0] [0x2 1 1 [5 0] [4 4]] (REQUEST)
r 0.012810856 _19_ RTR  --- 0 AODV 48 [0 ffffffff 4 800] ------- [4:255 -1:255 30 0] [0x2 1 1 [5 0] [4 4]] (REQUEST)
r 0.012935314 _9_ RTR  --- 0 AODV 48 [0 ffffffff b 800] ------- [11:255 -1:255 29 0] [0x2 2 1 [9 0] [0 4]] (REQUEST)
r 0.012935583 _13_ RTR  --- 0 AODV 48 [0 ffffffff b 800] ------- [11:255 -1:255 29 0] [0x2 2 1 [9 0] [0 4]] (REQUEST)
s 0.015391718 _8_ RTR  --- 0 AODV 48 [0 ffffffff 4 800] ------- [8:255 -1:255 29 0] [0x2 2 1 [5 0] [4 4]] (REQUEST)
r 0.016157799 _9_ RTR  --- 0 AODV 48 [0 ffffffff 2 800] ------- [2:255 -1:255 30 0] [0x2 1 1 [7 0] [2 4]] (REQUEST)
s 0.016298030 _3_ RTR  --- 0 AODV 48 [0 ffffffff 4 800] ------- [3:255 -1:255 29 0] [0x2 2 1 [5 0] [4 4]] (REQUEST)
s 0.016897703 _10_ RTR  --- 0 AODV 48 [0 ffffffff 4 800] ------- [10:255 -1:255 29 0] [0x2 2 1 [5 0] [4 4]] (REQUEST)
r 0.017546274 _19_ RTR  --- 0 AODV 48 [0 ffffffff 3 800] ------- [3:255 -1:255 29 0] [0x2 2 1 [5 0] [4 4]] (REQUEST)
r 0.017546340 _4_ RTR  --- 0 AODV 48 [0 ffffffff 3 800] ------- [3:255 -1:255 29 0] [0x2 2 1 [5 0] [4 4]] (REQUEST)
s 0.017997344 _19_ RTR  --- 0 AODV 48 [0 ffffffff 4 800] ------- [19:255 -1:255 29 0] [0x2 2 1 [5 0] [4 4]] (REQUEST)
r 0.018120657 _0_ RTR  --- 0 AODV 44 [13a 0 9 800] ------- [9:255 0:255 30 0] [0x4 1 [9 4] 10.000000] (REPLY)
s 0.018120657 _0_ RTR  --- 0 tcp 40 [0 0 0 0] ------- [0:0 9:0 30 9] [0 0] 0 0
r 0.019025588 _3_ RTR  --- 0 AODV 48 [0 ffffffff 13 800] ------- [19:255 -1:255 29 0] [0x2 2 1 [5 0] [4 4]] (REQUEST)
r 0.019025955 _7_ RTR  --- 0 AODV 48 [0 ffffffff 13 800] ------- [19:255 -1:255 29 0] [0x2 2 1 [5 0] [4 4]] (REQUEST)
s 0.019311433 _14_ RTR  --- 0 AODV 48 [0 ffffffff 0 800] ------- [14:255 -1:255 29 0] [0x2 2 1 [9 0] [0 4]] (REQUEST)
s 0.019785521 _19_ RTR  --- 0 AODV 48 [0 ffffffff 3 800] ------- [19:255 -1:255 29 0] [0x2 2 1 [6 0] [3 4]] (REQUEST)
s 0.019858651 _13_ RTR  --- 0 AODV 48 [0 ffffffff b 800] ------- [13:255 -1:255 28 0] [0x2 3 1 [9 0] [0 4]] (REQUEST)
r 0.020145515 _9_ AGT  --- 0 tcp 40 [13a 9 0 800] ------- [0:0 9:0 30 9] [0 0] 1 0
s 0.020145515 _9_ AGT  --- 5 ack 40 [0 0 0 0] ------- [9:0 0:0 32 0] [0 0] 0 0
r 0.020145515 _9_ RTR  --- 5 ack 40 [0 0 0 0] ------- [9:0 0:0 32 0] [0 0] 0 0
s 0.020145515 _9_ RTR  --- 5 ack 40 [0 0 0 0] ------- [9:0 0:0 30 0] [0 0] 0 0
s 0.020899607 _7_ RTR  --- 0 AODV 48 [0 ffffffff 13 800] ------- [7:255 -1:255 28 0] [0x2 3 1 [5 0] [4 4]] (REQUEST)
r 0.020953765 _3_ RTR  --- 0 AODV 48 [0 ffffffff 13 800] ------- [19:255 -1:255 29 0] [0x2 2 1 [6 0] [3 4]] (REQUEST)
r 0.020954131 _7_ RTR  --- 0 AODV 48 [0 ffffffff 13 800] ------- [19:255 -1:255 29 0] [0x2 2 1 [6 0] [3 4]] (REQUEST)
r 0.021912741 _19_ RTR  --- 0 AODV 48 [0 ffffffff 7 800] ------- [7:255 -1:255 28 0] [0x2 3 1 [5 0] [4 4]] (REQUEST)
r 0.022070373 _0_ AGT  --- 5 ack 40 [13a 0 9 800] ------- [9:0 0:0 30 0] [0 0] 1 0
s 0.022070373 _0_ AGT  --- 6 tcp 1540 [0 0 0 0] ------- [0:0 9:0 32 0] [1 0] 0 0
r 0.022070373 _0_ RTR  --- 6 tcp 1540 [0 0 0 0] ------- [0:0 9:0 32 0] [1 0] 0 0
s 0.022070373 _0_ AGT  --- 7 tcp 1540 [0 0 0 0] ------- [0:0 9:0 32 0] [2 0] 0 0
r 0.022070373 _0_ RTR  --- 7 tcp 1540 [0 0 0 0] ------- [0:0 9:0 32 0] [2 0] 0 0
s 0.022070373 _0_ RTR  --- 6 tcp 1540 [0 0 0 0] ------- [0:0 9:0 30 9] [1 0] 0 0
s 0.022070373 _0_ RTR  --- 7 tcp 1540 [0 0 0 0] ------- [0:0 9:0 30 9] [2 0] 0 0
r 0.023363212 _15_ RTR  --- 0 AODV 48 [0 ffffffff 12 800] ------- [18:255 -1:255 29 0] [0x2 2 1 [9 0] [0 4]] (REQUEST)
r 0.023363277 _14_ RTR  --- 0 AODV 48 [0 ffffffff 12 800] ------- [18:255 -1:255 29 0] [0x2 2 1 [9 0] [0 4]] (REQUEST)
r 0.023363423 _1_ RTR  --- 0 AODV 48 [0 ffffffff 12 800] ------- [18:255 -1:255 29 0] [0x2 2 1 [9 0] [0 4]] (REQUEST)
r 0.023363434 _0_ RTR  --- 0 AODV 48 [0 ffffffff 12 800] ------- [18:255 -1:255 29 0] [0x2 2 1 [9 0] [0 4]] (REQUEST)
r 0.023363628 _17_ RTR  --- 0 AODV 48 [0 ffffffff 12 800] ------- [18:255 -1:255 29 0] [0x2 2 1 [9 0] [0 4]] (REQUEST)
r 0.023363703 _9_ RTR  --- 0 AODV 48 [0 ffffffff 12 800] ------- [18:255 -1:255 29 0] [0x2 2 1 [9 0] [0 4]] (REQUEST)
r 0.023363722 _10_ RTR  --- 0 AODV 48 [0 ffffffff 12 800] ------- [18:255 -1:255 29 0] [0x2 2 1 [9 0] [0 4]] (REQUEST)
r 0.024321705 _15_ RTR  --- 0 AODV 48 [0 ffffffff 1 800] ------- [1:255 -1:255 30 0] [0x2 1 1 [8 0] [1 4]] (REQUEST)
r 0.024321747 _10_ RTR  --- 0 AODV 48 [0 ffffffff 1 800] ------- [1:255 -1:255 30 0] [0x2 1 1 [8 0] [1 4]] (REQUEST)
r 0.024321943 _18_ RTR  --- 0 AODV 48 [0 ffffffff 1 800] ------- [1:255 -1:255 30 0] [0x2 1 1 [8 0] [1 4]] (REQUEST)
r 0.024321971 _8_ RTR  --- 0 AODV 48 [0 ffffffff 1 800] ------- [1:255 -1:255 30 0] [0x2 1 1 [8 0] [1 4]] (REQUEST)
s 0.024321971 _8_ RTR  --- 0 AODV 44 [0 0 0 0] ------- [8:255 1:255 30 1] [0x4 1 [8 4] 10.000000] (REPLY)
s 0.024597518 _18_ RTR  --- 0 AODV 48 [0 ffffffff 1 800] ------- [18:255 -1:255 29 0] [0x2 2 1 [8 0] [1 4]] (REQUEST)
s 0.024668864 _9_ RTR  --- 0 AODV 48 [0 ffffffff 2 800] ------- [9:255 -1:255 29 0] [0x2 2 1 [7 0] [2 4]] (REQUEST)
r 0.025520071 _1_ RTR  --- 0 AODV 48 [0 ffffffff a 800] ------- [10:255 -1:255 29 0] [0x2 2 1 [5 0] [4 4]] (REQUEST)
r 0.025520185 _8_ RTR  --- 0 AODV 48 [0 ffffffff a 800] ------- [10:255 -1:255 29 0] [0x2 2 1 [5 0] [4 4]] (REQUEST)
r 0.025520284 _4_ RTR  --- 0 AODV 48 [0 ffffffff a 800] ------- [10:255 -1:255 29 0] [0x2 2 1 [5 0] [4 4]] (REQUEST)
r 0.025520353 _15_ RTR  --- 0 AODV 48 [0 ffffffff a 800] ------- [10:255 -1:255 29 0] [0x2 2 1 [5 0] [4 4]] (REQUEST)
r 0.025520434 _3_ RTR  --- 0 AODV 48 [0 ffffffff a 800] ------- [10:255 -1:255 29 0] [0x2 2 1 [5 0] [4 4]] (REQUEST)
r 0.025520559 _19_ RTR  --- 0 AODV 48 [0 ffffffff a 800] ------- [10:255 -1:255 29 0] [0x2 2 1 [5 0] [4 4]] (REQUEST)
r 0.025520566 _18_ RTR  --- 0 AODV 48 [0 ffffffff a 800] ------- [10:255 -1:255 29 0] [0x2 2 1 [5 0] [4 4]] (REQUEST)
s 0.025933149 _15_ RTR  --- 0 AODV 48 [0 ffffffff 12 800] ------- [15:255 -1:255 28 0] [0x2 3 1 [9 0] [0 4]] (REQUEST)
r 0.026538875 _15_ RTR  --- 0 AODV 48 [0 ffffffff 12 800] ------- [18:255 -1:255 29 0] [0x2 2 1 [8 0] [1 4]] (REQUEST)
r 0.026538939 _14_ RTR  --- 0 AODV 48 [0 ffffffff 12 800] ------- [18:255 -1:255 29 0] [0x2 2 1 [8 0] [1 4]] (REQUEST)
r 0.026539086 _1_ RTR  --- 0 AODV 48 [0 ffffffff 12 800] ------- [18:255 -1:255 29 0] [0x2 2 1 [8 0] [1 4]] (REQUEST)
r 0.026539097 _0_ RTR  --- 0 AODV 48 [0 ffffffff 12 800] ------- [18:255 -1:255 29 0] [0x2 2 1 [8 0] [1 4]] (REQUEST)
r 0.026539291 _17_ RTR  --- 0 AODV 48 [0 ffffffff 12 800] ------- [18:255 -1:255 29 0] [0x2 2 1 [8 0] [1 4]] (REQUEST)
r 0.026539366 _9_ RTR  --- 0 AODV 48 [0 ffffffff 12 800] ------- [18:255 -1:255 29 0] [0x2 2 1 [8 0] [1 4]] (REQUEST)
r 0.026539385 _10_ RTR  --- 0 AODV 48 [0 ffffffff 12 800] ------- [18:255 -1:255 29 0] [0x2 2 1 [8 0] [1 4]] (REQUEST)
s 0.026904405 _7_ RTR  --- 0 AODV 48 [0 ffffffff 13 800] ------- [7:255 -1:255 28 0] [0x2 3 1 [6 0] [3 4]] (REQUEST)
s 0.027452860 _17_ RTR  --- 0 AODV 48 [0 ffffffff 12 800] ------- [17:255 -1:255 28 0] [0x2 3 1 [8 0] [1 4]] (REQUEST)
r 0.027457156 _1_ RTR  --- 0 AODV 48 [0 ffffffff f 800] ------- [15:255 -1:255 28 0] [0x2 3 1 [9 0] [0 4]] (REQUEST)
r 0.027457183 _18_ RTR  --- 0 AODV 48 [0 ffffffff f 800] ------- [15:255 -1:255 28 0] [0x2 3 1 [9 0] [0 4]] (REQUEST)
r 0.027457480 _10_ RTR  --- 0 AODV 48 [0 ffffffff f 800] ------- [15:255 -1:255 28 0] [0x2 3 1 [9 0] [0 4]] (REQUEST)
r 0.027457491 _17_ RTR  --- 0 AODV 48 [0 ffffffff f 800] ------- [15:255 -1:255 28 0] [0x2 3 1 [9 0] [0 4]] (REQUEST)
r 0.027457556 _14_ RTR  --- 0 AODV 48 [0 ffffffff f 800] ------- [15:255 -1:255 28 0] [0x2 3 1 [9 0] [0 4]] (REQUEST)
r 0.027457624 _8_ RTR  --- 0 AODV 48 [0 ffffffff f 800] ------- [15:255 -1:255 28 0] [0x2 3 1 [9 0] [0 4]] (REQUEST)
s 0.028326218 _14_ RTR  --- 0 AODV 48 [0 ffffffff 12 800] ------- [14:255 -1:255 28 0] [0x2 3 1 [8 0] [1 4]] (REQUEST)
r 0.028436062 _10_ RTR  --- 0 AODV 48 [0 ffffffff 8 800] ------- [8:255 -1:255 29 0] [0x2 2 1 [5 0] [4 4]] (REQUEST)
r 0.028436066 _3_ RTR  --- 0 AODV 48 [0 ffffffff 8 800] ------- [8:255 -1:255 29 0] [0x2 2 1 [5 0] [4 4]] (REQUEST)
r 0.028436066 _19_ RTR  --- 0 AODV 48 [0 ffffffff 8 800] ------- [8:255 -1:255 29 0] [0x2 2 1 [5 0] [4 4]] (REQUEST)
r 0.028436152 _4_ RTR  --- 0 AODV 48 [0 ffffffff 8 800] ------- [8:255 -1:255 29 0] [0x2 2 1 [5 0] [4 4]] (REQUEST)
r 0.028436172 _1_ RTR  --- 0 AODV 48 [0 ffffffff 8 800] ------- [8:255 -1:255 29 0] [0x2 2 1 [5 0] [4 4]] (REQUEST)
r 0.028436352 _7_ RTR  --- 0 AODV 48 [0 ffffffff 8 800] ------- [8:255 -1:255 29 0] [0x2 2 1 [5 0] [4 4]] (REQUEST)
r 0.028436373 _15_ RTR  --- 0 AODV 48 [0 ffffffff 8 800] ------- [8:255 -1:255 29 0] [0x2 2 1 [5 0] [4 4]] (REQUEST)
s 0.028578620 _10_ RTR  --- 0 AODV 48 [0 ffffffff 1 800] ------- [10:255 -1:255 29 0] [0x2 2 1 [8 0] [1 4]] (REQUEST)
s 0.028811848 _17_ RTR  --- 0 AODV 48 [0 ffffffff 12 800] ------- [17:255 -1:255 28 0] [0x2 3 1 [9 0] [0 4]] (REQUEST)
s 0.029870102 _15_ RTR  --- 0 AODV 48 [0 ffffffff 1 800] ------- [15:255 -1:255 29 0] [0x2 2 1 [8 0] [1 4]] (REQUEST)
s 0.030350156 _1_ RTR  --- 0 AODV 48 [0 ffffffff 12 800] ------- [1:255 -1:255 28 0] [0x2 3 1 [9 0] [0 4]] (REQUEST)
s 0.031456583 _9_ RTR  --- 0 AODV 48 [0 ffffffff 12 800] ------- [9:255 -1:255 28 0] [0x2 3 1 [8 0] [1 4]] (REQUEST)
s 0.032130279 _10_ RTR  --- 0 AODV 48 [0 ffffffff 12 800] ------- [10:255 -1:255 28 0] [0x2 3 1 [9 0] [0 4]] (REQUEST)
r 0.032732458 _1_ RTR  --- 0 AODV 44 [13a 1 8 800] ------- [8:255 1:255 30 1] [0x4 1 [8 4] 10.000000] (REPLY)
s 0.032732458 _1_ RTR  --- 1 tcp 40 [0 0 0 0] ------- [1:0 8:0 30 8] [0 0] 0 0
s 0.032786609 _8_ RTR  --- 0 AODV 48 [0 ffffffff f 800] ------- [8:255 -1:255 27 0] [0x2 4 1 [9 0] [0 4]] (REQUEST)
s 0.033247523 _18_ RTR  --- 0 AODV 48 [0 ffffffff a 800] ------- [18:255 -1:255 28 0] [0x2 3 1 [5 0] [4 4]] (REQUEST)
s 0.033369942 _1_ RTR  --- 0 AODV 48 [0 ffffffff a 800] ------- [1:255 -1:255 28 0] [0x2 3 1 [5 0] [4 4]] (REQUEST)
r 0.034025106 _1_ RTR  --- 0 AODV 48 [0 ffffffff a 800] ------- [10:255 -1:255 29 0] [0x2 2 1 [8 0] [1 4]] (REQUEST)
r 0.034025220 _8_ RTR  --- 0 AODV 48 [0 ffffffff a 800] ------- [10:255 -1:255 29 0] [0x2 2 1 [8 0] [1 4]] (REQUEST)
r 0.034025319 _4_ RTR  --- 0 AODV 48 [0 ffffffff a 800] ------- [10:255 -1:255 29 0] [0x2 2 1 [8 0] [1 4]] (REQUEST)
r 0.034025387 _15_ RTR  --- 0 AODV 48 [0 ffffffff a 800] ------- [10:255 -1:255 29 0] [0x2 2 1 [8 0] [1 4]] (REQUEST)
r 0.034025468 _3_ RTR  --- 0 AODV 48 [0 ffffffff a 800] ------- [10:255 -1:255 29 0] [0x2 2 1 [8 0] [1 4]] (REQUEST)
r 0.034025594 _19_ RTR  --- 0 AODV 48 [0 ffffffff a 800] ------- [10:255 -1:255 29 0] [0x2 2 1 [8 0] [1 4]] (REQUEST)
r 0.034025600 _18_ RTR  --- 0 AODV 48 [0 ffffffff a 800] ------- [10:255 -1:255 29 0] [0x2 2 1 [8 0] [1 4]] (REQUEST)
r 0.034963657 _10_ RTR  --- 0 AODV 48 [0 ffffffff 8 800] ------- [8:255 -1:255 27 0] [0x2 4 1 [9 0] [0 4]] (REQUEST)
r 0.034963662 _3_ RTR  --- 0 AODV 48 [0 ffffffff 8 800] ------- [8:255 -1:255 27 0] [0x2 4 1 [9 0] [0 4]] (REQUEST)
r 0.034963662 _19_ RTR  --- 0 AODV 48 [0 ffffffff 8 800] ------- [8:255 -1:255 27 0] [0x2 4 1 [9 0] [0 4]] (REQUEST)
r 0.034963748 _4_ RTR  --- 0 AODV 48 [0 ffffffff 8 800] ------- [8:255 -1:255 27 0] [0x2 4 1 [9 0] [0 4]] (REQUEST)
r 0.034963767 _1_ RTR  --- 0 AODV 48 [0 ffffffff 8 800] ------- [8:255 -1:255 27 0] [0x2 4 1 [9 0] [0 4]] (REQUEST)
r 0.034963947 _7_ RTR  --- 0 AODV 48 [0 ffffffff 8 800] ------- [8:255 -1:255 27 0] [0x2 4 1 [9 0] [0 4]] (REQUEST)
r 0.034963969 _15_ RTR  --- 0 AODV 48 [0 ffffffff 8 800] ------- [8:255 -1:255 27 0] [0x2 4 1 [9 0] [0 4]] (REQUEST)
s 0.034988515 _15_ RTR  --- 0 AODV 48 [0 ffffffff a 800] ------- [15:255 -1:255 28 0] [0x2 3 1 [5 0] [4 4]] (REQUEST)
r 0.035881981 _1_ RTR  --- 0 AODV 48 [0 ffffffff a 800] ------- [10:255 -1:255 28 0] [0x2 3 1 [9 0] [0 4]] (REQUEST)
r 0.035882095 _8_ RTR  --- 0 AODV 48 [0 ffffffff a 800] ------- [10:255 -1:255 28 0] [0x2 3 1 [9 0] [0 4]] (REQUEST)
r 0.035882194 _4_ RTR  --- 0 AODV 48 [0 ffffffff a 800] ------- [10:255 -1:255 28 0] [0x2 3 1 [9 0] [0 4]] (REQUEST)
r 0.035882263 _15_ RTR  --- 0 AODV 48 [0 ffffffff a 800] ------- [10:255 -1:255 28 0] [0x2 3 1 [9 0] [0 4]] (REQUEST)
r 0.035882344 _3_ RTR  --- 0 AODV 48 [0 ffffffff a 800] ------- [10:255 -1:255 28 0] [0x2 3 1 [9 0] [0 4]] (REQUEST)
r 0.035882469 _19_ RTR  --- 0 AODV 48 [0 ffffffff a 800] ------- [10:255 -1:255 28 0] [0x2 3 1 [9 0] [0 4]] (REQUEST)
r 0.035882476 _18_ RTR  --- 0 AODV 48 [0 ffffffff a 800] ------- [10:255 -1:255 28 0] [0x2 3 1 [9 0] [0 4]] (REQUEST)
s 0.036299164 _0_ RTR  --- 0 AODV 48 [0 ffffffff 12 800] ------- [0:255 -1:255 28 0] [0x2 3 1 [8 0] [1 4]] (REQUEST)
s 0.036463632 _4_ RTR  --- 0 AODV 48 [0 ffffffff 8 800] ------- [4:255 -1:255 26 0] [0x2 5 1 [9 0] [0 4]] (REQUEST)
r 0.036860545 _1_ RTR  --- 0 AODV 48 [0 ffffffff f 800] ------- [15:255 -1:255 29 0] [0x2 2 1 [8 0] [1 4]] (REQUEST)
r 0.036860572 _18_ RTR  --- 0 AODV 48 [0 ffffffff f 800] ------- [15:255 -1:255 29 0] [0x2 2 1 [8 0] [1 4]] (REQUEST)
r 0.036860869 _10_ RTR  --- 0 AODV 48 [0 ffffffff f 800] ------- [15:255 -1:255 29 0] [0x2 2 1 [8 0] [1 4]] (REQUEST)
r 0.036860880 _17_ RTR  --- 0 AODV 48 [0 ffffffff f 800] ------- [15:255 -1:255 29 0] [0x2 2 1 [8 0] [1 4]] (REQUEST)
r 0.036860944 _14_ RTR  --- 0 AODV 48 [0 ffffffff f 800] ------- [15:255 -1:255 29 0] [0x2 2 1 [8 0] [1 4]] (REQUEST)
r 0.036861013 _8_ RTR  --- 0 AODV 48 [0 ffffffff f 800] ------- [15:255 -1:255 29 0] [0x2 2 1 [8 0] [1 4]] (REQUEST)
s 0.037586054 _3_ RTR  --- 0 AODV 48 [0 ffffffff a 800] ------- [3:255 -1:255 28 0] [0x2 3 1 [8 0] [1 4]] (REQUEST)
r 0.037839244 _12_ RTR  --- 0 AODV 48 [0 ffffffff 11 800] ------- [17:255 -1:255 28 0] [0x2 3 1 [8 0] [1 4]] (REQUEST)
r 0.037839497 _15_ RTR  --- 0 AODV 48 [0 ffffffff 11 800] ------- [17:255 -1:255 28 0] [0x2 3 1 [8 0] [1 4]] (REQUEST)
r 0.037839594 _5_ RTR  --- 0 AODV 48 [0 ffffffff 11 800] ------- [17:255 -1:255 28 0] [0x2 3 1 [8 0] [1 4]] (REQUEST)
r 0.037839604 _18_ RTR  --- 0 AODV 48 [0 ffffffff 11 800] ------- [17:255 -1:255 28 0] [0x2 3 1 [8 0] [1 4]] (REQUEST)
r 0.038897913 _15_ RTR  --- 0 AODV 48 [0 ffffffff 12 800] ------- [18:255 -1:255 28 0] [0x2 3 1 [5 0] [4 4]] (REQUEST)
r 0.038897978 _14_ RTR  --- 0 AODV 48 [0 ffffffff 12 800] ------- [18:255 -1:255 28 0] [0x2 3 1 [5 0] [4 4]] (REQUEST)
r 0.038898124 _1_ RTR  --- 0 AODV 48 [0 ffffffff 12 800] ------- [18:255 -1:255 28 0] [0x2 3 1 [5 0] [4 4]] (REQUEST)
r 0.038898135 _0_ RTR  --- 0 AODV 48 [0 ffffffff 12 800] ------- [18:255 -1:255 28 0] [0x2 3 1 [5 0] [4 4]] (REQUEST)
r 0.038898329 _17_ RTR  --- 0 AODV 48 [0 ffffffff 12 800] ------- [18:255 -1:255 28 0] [0x2 3 1 [5 0] [4 4]] (REQUEST)
r 0.038898404 _9_ RTR  --- 0 AODV 48 [0 ffffffff 12 800] ------- [18:255 -1:255 28 0] [0x2 3 1 [5 0] [4 4]] (REQUEST)
r 0.038898423 _10_ RTR  --- 0 AODV 48 [0 ffffffff 12 800] ------- [18:255 -1:255 28 0] [0x2 3 1 [5 0] [4 4]] (REQUEST)
s 0.038931832 _17_ RTR  --- 0 AODV 48 [0 ffffffff 12 800] ------- [17:255 -1:255 27 0] [0x2 4 1 [5 0] [4 4]] (REQUEST)
s 0.039027723 _7_ RTR  --- 0 AODV 48 [0 ffffffff 8 800] ------- [7:255 -1:255 26 0] [0x2 5 1 [9 0] [0 4]] (REQUEST)
s 0.039609679 _19_ RTR  --- 0 AODV 48 [0 ffffffff a 800] ------- [19:255 -1:255 28 0] [0x2 3 1 [8 0] [1 4]] (REQUEST)
r 0.039816693 _12_ RTR  --- 0 AODV 48 [0 ffffffff 11 800] ------- [17:255 -1:255 28 0] [0x2 3 1 [9 0] [0 4]] (REQUEST)
r 0.039816946 _15_ RTR  --- 0 AODV 48 [0 ffffffff 11 800] ------- [17:255 -1:255 28 0] [0x2 3 1 [9 0] [0 4]] (REQUEST)
r 0.039817043 _5_ RTR  --- 0 AODV 48 [0 ffffffff 11 800] ------- [17:255 -1:255 28 0] [0x2 3 1 [9 0] [0 4]] (REQUEST)
r 0.039817053 _18_ RTR  --- 0 AODV 48 [0 ffffffff 11 800] ------- [17:255 -1:255 28 0] [0x2 3 1 [9 0] [0 4]] (REQUEST)
r 0.041035227 _1_ RTR  --- 0 AODV 48 [0 ffffffff f 800] ------- [15:255 -1:255 28 0] [0x2 3 1 [5 0] [4 4]] (REQUEST)
r 0.041035254 _18_ RTR  --- 0 AODV 48 [0 ffffffff f 800] ------- [15:255 -1:255 28 0] [0x2 3 1 [5 0] [4 4]] (REQUEST)
r 0.041035551 _10_ RTR  --- 0 AODV 48 [0 ffffffff f 800] ------- [15:255 -1:255 28 0] [0x2 3 1 [5 0] [4 4]] (REQUEST)
r 0.041035563 _17_ RTR  --- 0 AODV 48 [0 ffffffff f 800] ------- [15:255 -1:255 28 0] [0x2 3 1 [5 0] [4 4]] (REQUEST)
r 0.041035627 _14_ RTR  --- 0 AODV 48 [0 ffffffff f 800] ------- [15:255 -1:255 28 0] [0x2 3 1 [5 0] [4 4]] (REQUEST)
r 0.041035695 _8_ RTR  --- 0 AODV 48 [0 ffffffff f 800] ------- [15:255 -1:255 28 0] [0x2 3 1 [5 0] [4 4]] (REQUEST)
s 0.041529233 _5_ RTR  --- 0 AODV 48 [0 ffffffff 11 800] ------- [5:255 -1:255 27 0] [0x2 4 1 [9 0] [0 4]] (REQUEST)
s 0.041598921 _19_ RTR  --- 0 AODV 48 [0 ffffffff 8 800] ------- [19:255 -1:255 26 0] [0x2 5 1 [9 0] [0 4]] (REQUEST)
s 0.041948025 _0_ RTR  --- 0 AODV 48 [0 ffffffff 12 800] ------- [0:255 -1:255 27 0] [0x2 4 1 [5 0] [4 4]] (REQUEST)
r 0.041973927 _12_ RTR  --- 0 AODV 48 [0 ffffffff 11 800] ------- [17:255 -1:255 27 0] [0x2 4 1 [5 0] [4 4]] (REQUEST)
r 0.041974179 _15_ RTR  --- 0 AODV 48 [0 ffffffff 11 800] ------- [17:255 -1:255 27 0] [0x2 4 1 [5 0] [4 4]] (REQUEST)
r 0.041974276 _5_ RTR  --- 0 AODV 48 [0 ffffffff 11 800] ------- [17:255 -1:255 27 0] [0x2 4 1 [5 0] [4 4]] (REQUEST)
s 0.041974276 _5_ RTR  --- 0 AODV 44 [0 0 0 0] ------- [5:255 4:255 30 17] [0x4 1 [5 4] 10.000000] (REPLY)
r 0.041974287 _18_ RTR  --- 0 AODV 48 [0 ffffffff 11 800] ------- [17:255 -1:255 27 0] [0x2 4 1 [5 0] [4 4]] (REQUEST)
s 0.042045437 _4_ RTR  --- 0 AODV 48 [0 ffffffff a 800] ------- [4:255 -1:255 28 0] [0x2 3 1 [8 0] [1 4]] (REQUEST)
s 0.042115752 _9_ RTR  --- 0 AODV 48 [0 ffffffff 12 800] ------- [9:255 -1:255 27 0] [0x2 4 1 [5 0] [4 4]] (REQUEST)
s 0.042550451 _14_ RTR  --- 0 AODV 48 [0 ffffffff 12 800] ------- [14:255 -1:255 27 0] [0x2 4 1 [5 0] [4 4]] (REQUEST)
s 0.042801412 _3_ RTR  --- 0 AODV 48 [0 ffffffff 8 800] ------- [3:255 -1:255 26 0] [0x2 5 1 [9 0] [0 4]] (REQUEST)
r 0.043192990 _17_ RTR  --- 0 AODV 48 [0 ffffffff 5 800] ------- [5:255 -1:255 27 0] [0x2 4 1 [9 0] [0 4]] (REQUEST)
r 0.043193003 _12_ RTR  --- 0 AODV 48 [0 ffffffff 5 800] ------- [5:255 -1:255 27 0] [0x2 4 1 [9 0] [0 4]] (REQUEST)
r 0.043193050 _16_ RTR  --- 0 AODV 48 [0 ffffffff 5 800] ------- [5:255 -1:255 27 0] [0x2 4 1 [9 0] [0 4]] (REQUEST)
r 0.043277438 _3_ RTR  --- 0 AODV 48 [0 ffffffff 4 800] ------- [4:255 -1:255 26 0] [0x2 5 1 [9 0] [0 4]] (REQUEST)
r 0.043277665 _10_ RTR  --- 0 AODV 48 [0 ffffffff 4 800] ------- [4:255 -1:255 26 0] [0x2 5 1 [9 0] [0 4]] (REQUEST)
r 0.043277675 _19_ RTR  --- 0 AODV 48 [0 ffffffff 4 800] ------- [4:255 -1:255 26 0] [0x2 5 1 [9 0] [0 4]] (REQUEST)
r 0.043337513 _11_ RTR  --- 0 AODV 48 [0 ffffffff 9 800] ------- [9:255 -1:255 29 0] [0x2 2 1 [7 0] [2 4]] (REQUEST)
r 0.044175438 _3_ RTR  --- 0 AODV 48 [0 ffffffff 4 800] ------- [4:255 -1:255 28 0] [0x2 3 1 [8 0] [1 4]] (REQUEST)
r 0.044175657 _8_ RTR  --- 0 AODV 48 [0 ffffffff 4 800] ------- [4:255 -1:255 28 0] [0x2 3 1 [8 0] [1 4]] (REQUEST)
r 0.044175665 _10_ RTR  --- 0 AODV 48 [0 ffffffff 4 800] ------- [4:255 -1:255 28 0] [0x2 3 1 [8 0] [1 4]] (REQUEST)
r 0.044175675 _19_ RTR  --- 0 AODV 48 [0 ffffffff 4 800] ------- [4:255 -1:255 28 0] [0x2 3 1 [8 0] [1 4]] (REQUEST)
r 0.044295285 _0_ RTR  --- 0 AODV 48 [0 ffffffff 9 800] ------- [9:255 -1:255 27 0] [0x2 4 1 [5 0] [4 4]] (REQUEST)
r 0.044295482 _14_ RTR  --- 0 AODV 48 [0 ffffffff 9 800] ------- [9:255 -1:255 27 0] [0x2 4 1 [5 0] [4 4]] (REQUEST)
r 0.044295513 _11_ RTR  --- 0 AODV 48 [0 ffffffff 9 800] ------- [9:255 -1:255 27 0] [0x2 4 1 [5 0] [4 4]] (REQUEST)
r 0.044295795 _2_ RTR  --- 0 AODV 48 [0 ffffffff 9 800] ------- [9:255 -1:255 27 0] [0x2 4 1 [5 0] [4 4]] (REQUEST)
s 0.044796142 _12_ RTR  --- 0 AODV 48 [0 ffffffff 11 800] ------- [12:255 -1:255 27 0] [0x2 4 1 [8 0] [1 4]] (REQUEST)
r 0.045173919 _3_ RTR  --- 0 AODV 48 [0 ffffffff 13 800] ------- [19:255 -1:255 28 0] [0x2 3 1 [8 0] [1 4]] (REQUEST)
r 0.045174117 _8_ RTR  --- 0 AODV 48 [0 ffffffff 13 800] ------- [19:255 -1:255 28 0] [0x2 3 1 [8 0] [1 4]] (REQUEST)
r 0.045174222 _4_ RTR  --- 0 AODV 48 [0 ffffffff 13 800] ------- [19:255 -1:255 28 0] [0x2 3 1 [8 0] [1 4]] (REQUEST)
r 0.045174285 _7_ RTR  --- 0 AODV 48 [0 ffffffff 13 800] ------- [19:255 -1:255 28 0] [0x2 3 1 [8 0] [1 4]] (REQUEST)
r 0.045213285 _0_ RTR  --- 0 AODV 48 [0 ffffffff 9 800] ------- [9:255 -1:255 28 0] [0x2 3 1 [8 0] [1 4]] (REQUEST)
r 0.045213482 _14_ RTR  --- 0 AODV 48 [0 ffffffff 9 800] ------- [9:255 -1:255 28 0] [0x2 3 1 [8 0] [1 4]] (REQUEST)
r 0.045213513 _11_ RTR  --- 0 AODV 48 [0 ffffffff 9 800] ------- [9:255 -1:255 28 0] [0x2 3 1 [8 0] [1 4]] (REQUEST)
r 0.045213795 _2_ RTR  --- 0 AODV 48 [0 ffffffff 9 800] ------- [9:255 -1:255 28 0] [0x2 3 1 [8 0] [1 4]] (REQUEST)
r 0.046091919 _3_ RTR  --- 0 AODV 48 [0 ffffffff 13 800] ------- [19:255 -1:255 26 0] [0x2 5 1 [9 0] [0 4]] (REQUEST)
r 0.046092117 _8_ RTR  --- 0 AODV 48 [0 ffffffff 13 800] ------- [19:255 -1:255 26 0] [0x2 5 1 [9 0] [0 4]] (REQUEST)
r 0.046092222 _4_ RTR  --- 0 AODV 48 [0 ffffffff 13 800] ------- [19:255 -1:255 26 0] [0x2 5 1 [9 0] [0 4]] (REQUEST)
r 0.046092285 _7_ RTR  --- 0 AODV 48 [0 ffffffff 13 800] ------- [19:255 -1:255 26 0] [0x2 5 1 [9 0] [0 4]] (REQUEST)
r 0.046171680 _0_ RTR  --- 0 AODV 48 [0 ffffffff e 800] ------- [14:255 -1:255 29 0] [0x2 2 1 [9 0] [0 4]] (REQUEST)
r 0.046171966 _9_ RTR  --- 0 AODV 48 [0 ffffffff e 800] ------- [14:255 -1:255 29 0] [0x2 2 1 [9 0] [0 4]] (REQUEST)
s 0.046437315 _2_ RTR  --- 0 AODV 48 [0 ffffffff 9 800] ------- [2:255 -1:255 26 0] [0x2 5 1 [5 0] [4 4]] (REQUEST)
s 0.046958986 _5_ RTR  --- 0 AODV 48 [0 ffffffff 11 800] ------- [5:255 -1:255 27 0] [0x2 4 1 [8 0] [1 4]] (REQUEST)
r 0.047210896 _19_ RTR  --- 0 AODV 48 [0 ffffffff 7 800] ------- [7:255 -1:255 28 0] [0x2 3 1 [6 0] [3 4]] (REQUEST)
r 0.047211013 _8_ RTR  --- 0 AODV 48 [0 ffffffff 7 800] ------- [7:255 -1:255 28 0] [0x2 3 1 [6 0] [3 4]] (REQUEST)
s 0.047705665 _16_ RTR  --- 0 AODV 48 [0 ffffffff 5 800] ------- [16:255 -1:255 26 0] [0x2 5 1 [9 0] [0 4]] (REQUEST)
s 0.047736657 _11_ RTR  --- 0 AODV 48 [0 ffffffff 9 800] ------- [11:255 -1:255 28 0] [0x2 3 1 [7 0] [2 4]] (REQUEST)
s 0.047875011 _12_ RTR  --- 0 AODV 48 [0 ffffffff 11 800] ------- [12:255 -1:255 27 0] [0x2 4 1 [9 0] [0 4]] (REQUEST)
r 0.048288896 _19_ RTR  --- 0 AODV 48 [0 ffffffff 7 800] ------- [7:255 -1:255 26 0] [0x2 5 1 [9 0] [0 4]] (REQUEST)
r 0.048289013 _8_ RTR  --- 0 AODV 48 [0 ffffffff 7 800] ------- [7:255 -1:255 26 0] [0x2 5 1 [9 0] [0 4]] (REQUEST)
s 0.048977861 _8_ RTR  --- 0 AODV 48 [0 ffffffff 7 800] ------- [8:255 -1:255 27 0] [0x2 4 1 [6 0] [3 4]] (REQUEST)
s 0.049249076 _7_ RTR  --- 0 AODV 48 [0 ffffffff 13 800] ------- [7:255 -1:255 27 0] [0x2 4 1 [8 0] [1 4]] (REQUEST)
r 0.049631373 _19_ RTR  --- 0 AODV 48 [0 ffffffff 3 800] ------- [3:255 -1:255 28 0] [0x2 3 1 [8 0] [1 4]] (REQUEST)
r 0.049631571 _8_ RTR  --- 0 AODV 48 [0 ffffffff 3 800] ------- [3:255 -1:255 28 0] [0x2 3 1 [8 0] [1 4]] (REQUEST)
s 0.049870210 _12_ RTR  --- 0 AODV 48 [0 ffffffff 11 800] ------- [12:255 -1:255 26 0] [0x2 5 1 [5 0] [4 4]] (REQUEST)
s 0.050061254 _11_ RTR  --- 0 AODV 48 [0 ffffffff 9 800] ------- [11:255 -1:255 27 0] [0x2 4 1 [8 0] [1 4]] (REQUEST)
r 0.051055278 _19_ RTR  --- 0 AODV 48 [0 ffffffff 7 800] ------- [7:255 -1:255 27 0] [0x2 4 1 [8 0] [1 4]] (REQUEST)
r 0.051055396 _8_ RTR  --- 0 AODV 48 [0 ffffffff 7 800] ------- [7:255 -1:255 27 0] [0x2 4 1 [8 0] [1 4]] (REQUEST)
r 0.052337755 _19_ RTR  --- 0 AODV 48 [0 ffffffff 3 800] ------- [3:255 -1:255 26 0] [0x2 5 1 [9 0] [0 4]] (REQUEST)
r 0.052337954 _8_ RTR  --- 0 AODV 48 [0 ffffffff 3 800] ------- [3:255 -1:255 26 0] [0x2 5 1 [9 0] [0 4]] (REQUEST)
s 0.053289659 _11_ RTR  --- 0 AODV 48 [0 ffffffff 9 800] ------- [11:255 -1:255 26 0] [0x2 5 1 [5 0] [4 4]] (REQUEST)
s 0.054181804 _2_ RTR  --- 0 AODV 48 [0 ffffffff 9 800] ------- [2:255 -1:255 27 0] [0x2 4 1 [8 0] [1 4]] (REQUEST)
r 0.059942538 _9_ AGT  --- 6 tcp 1540 [13a 9 0 800] ------- [0:0 9:0 30 9] [1 0] 1 0
s 0.059942538 _9_ AGT  --- 8 ack 40 [0 0 0 0] ------- [9:0 0:0 32 0] [1 0] 0 0
r 0.059942538 _9_ RTR  --- 8 ack 40 [0 0 0 0] ------- [9:0 0:0 32 0] [1 0] 0 0
s 0.059942538 _9_ RTR  --- 8 ack 40 [0 0 0 0] ------- [9:0 0:0 30 0] [1 0] 0 0
r 0.061155567 _9_ RTR  --- 0 AODV 48 [0 ffffffff b 800] ------- [11:255 -1:255 28 0] [0x2 3 1 [7 0] [2 4]] (REQUEST)
r 0.061155768 _0_ RTR  --- 0 AODV 48 [0 ffffffff b 800] ------- [11:255 -1:255 28 0] [0x2 3 1 [7 0] [2 4]] (REQUEST)
r 0.061155835 _13_ RTR  --- 0 AODV 48 [0 ffffffff b 800] ------- [11:255 -1:255 28 0] [0x2 3 1 [7 0] [2 4]] (REQUEST)
r 0.061740746 _10_ RTR  --- 0 AODV 48 [0 ffffffff 8 800] ------- [8:255 -1:255 27 0] [0x2 4 1 [6 0] [3 4]] (REQUEST)
r 0.061740750 _3_ RTR  --- 0 AODV 48 [0 ffffffff 8 800] ------- [8:255 -1:255 27 0] [0x2 4 1 [6 0] [3 4]] (REQUEST)
r 0.061740750 _19_ RTR  --- 0 AODV 48 [0 ffffffff 8 800] ------- [8:255 -1:255 27 0] [0x2 4 1 [6 0] [3 4]] (REQUEST)
r 0.061740836 _4_ RTR  --- 0 AODV 48 [0 ffffffff 8 800] ------- [8:255 -1:255 27 0] [0x2 4 1 [6 0] [3 4]] (REQUEST)
r 0.061741035 _7_ RTR  --- 0 AODV 48 [0 ffffffff 8 800] ------- [8:255 -1:255 27 0] [0x2 4 1 [6 0] [3 4]] (REQUEST)
r 0.062573567 _9_ RTR  --- 0 AODV 48 [0 ffffffff b 800] ------- [11:255 -1:255 26 0] [0x2 5 1 [5 0] [4 4]] (REQUEST)
r 0.062573768 _0_ RTR  --- 0 AODV 48 [0 ffffffff b 800] ------- [11:255 -1:255 26 0] [0x2 5 1 [5 0] [4 4]] (REQUEST)
r 0.062573835 _13_ RTR  --- 0 AODV 48 [0 ffffffff b 800] ------- [11:255 -1:255 26 0] [0x2 5 1 [5 0] [4 4]] (REQUEST)
r 0.063024779 _12_ RTR  --- 0 AODV 48 [0 ffffffff 5 800] ------- [5:255 -1:255 27 0] [0x2 4 1 [8 0] [1 4]] (REQUEST)
r 0.063024827 _16_ RTR  --- 0 AODV 48 [0 ffffffff 5 800] ------- [5:255 -1:255 27 0] [0x2 4 1 [8 0] [1 4]] (REQUEST)
s 0.063445604 _13_ RTR  --- 0 AODV 48 [0 ffffffff b 800] ------- [13:255 -1:255 27 0] [0x2 4 1 [7 0] [2 4]] (REQUEST)
r 0.063471567 _9_ RTR  --- 0 AODV 48 [0 ffffffff b 800] ------- [11:255 -1:255 27 0] [0x2 4 1 [8 0] [1 4]] (REQUEST)
r 0.063471768 _0_ RTR  --- 0 AODV 48 [0 ffffffff b 800] ------- [11:255 -1:255 27 0] [0x2 4 1 [8 0] [1 4]] (REQUEST)
r 0.063471835 _13_ RTR  --- 0 AODV 48 [0 ffffffff b 800] ------- [11:255 -1:255 27 0] [0x2 4 1 [8 0] [1 4]] (REQUEST)
r 0.063943143 _17_ RTR  --- 0 AODV 48 [0 ffffffff c 800] ------- [12:255 -1:255 27 0] [0x2 4 1 [8 0] [1 4]] (REQUEST)
r 0.063943436 _16_ RTR  --- 0 AODV 48 [0 ffffffff c 800] ------- [12:255 -1:255 27 0] [0x2 4 1 [8 0] [1 4]] (REQUEST)
r 0.063943505 _5_ RTR  --- 0 AODV 48 [0 ffffffff c 800] ------- [12:255 -1:255 27 0] [0x2 4 1 [8 0] [1 4]] (REQUEST)
s 0.064542766 _16_ RTR  --- 0 AODV 48 [0 ffffffff 5 800] ------- [16:255 -1:255 26 0] [0x2 5 1 [8 0] [1 4]] (REQUEST)
r 0.065001143 _17_ RTR  --- 0 AODV 48 [0 ffffffff c 800] ------- [12:255 -1:255 26 0] [0x2 5 1 [5 0] [4 4]] (REQUEST)
r 0.065001436 _16_ RTR  --- 0 AODV 48 [0 ffffffff c 800] ------- [12:255 -1:255 26 0] [0x2 5 1 [5 0] [4 4]] (REQUEST)
r 0.065001505 _5_ RTR  --- 0 AODV 48 [0 ffffffff c 800] ------- [12:255 -1:255 26 0] [0x2 5 1 [5 0] [4 4]] (REQUEST)
s 0.065489871 _0_ RTR  --- 0 AODV 48 [0 ffffffff b 800] ------- [0:255 -1:255 27 0] [0x2 4 1 [7 0] [2 4]] (REQUEST)
r 0.065953044 _9_ RTR  --- 0 AODV 48 [0 ffffffff 2 800] ------- [2:255 -1:255 27 0] [0x2 4 1 [8 0] [1 4]] (REQUEST)
s 0.066340573 _4_ RTR  --- 0 AODV 48 [0 ffffffff 8 800] ------- [4:255 -1:255 26 0] [0x2 5 1 [6 0] [3 4]] (REQUEST)
r 0.066439143 _17_ RTR  --- 0 AODV 48 [0 ffffffff c 800] ------- [12:255 -1:255 27 0] [0x2 4 1 [9 0] [0 4]] (REQUEST)