s 2.291686089 _6_ AGT  --- 1141 ack 40 [0 0 0 0] ------- [6:0 3:0 32 0] [567 0] 0 0
r 2.291686089 _6_ RTR  --- 1141 ack 40 [0 0 0 0] ------- [6:0 3:0 32 0] [567 0] 0 0
s 2.291686089 _6_ RTR  --- 1141 ack 40 [0 0 0 0] ------- [6:0 3:0 30 3] [567 0] 0 0
r 2.293641371 _6_ AGT  --- 1140 tcp 41 [13a 6 3 800] ------- [3:0 6:0 30 6] [568 0] 1 0
s 2.293641371 _6_ AGT  --- 1142 ack 40 [0 0 0 0] ------- [6:0 3:0 32 0] [568 0] 0 0
r 2.293641371 _6_ RTR  --- 1142 ack 40 [0 0 0 0] ------- [6:0 3:0 32 0] [568 0] 0 0
s 2.293641371 _6_ RTR  --- 1142 ack 40 [0 0 0 0] ------- [6:0 3:0 30 3] [568 0] 0 0
r 2.295827809 _0_ AGT  --- 1102 ack 40 [13a 0 6 800] ------- [9:0 0:0 28 0] [0 0] 3 0
s 2.295827809 _0_ AGT  --- 1143 tcp 41 [0 0 0 0] ------- [0:0 9:0 32 0] [1 0] 0 0
r 2.295827809 _0_ RTR  --- 1143 tcp 41 [0 0 0 0] ------- [0:0 9:0 32 0] [1 0] 0 0
s 2.295827809 _0_ AGT  --- 1144 tcp 41 [0 0 0 0] ------- [0:0 9:0 32 0] [2 0] 0 0
r 2.295827809 _0_ RTR  --- 1144 tcp 41 [0 0 0 0] ------- [0:0 9:0 32 0] [2 0] 0 0
s 2.295827809 _0_ RTR  --- 1143 tcp 41 [0 0 0 0] ------- [0:0 9:0 30 6] [1 0] 0 0
s 2.295827809 _0_ RTR  --- 1144 tcp 41 [0 0 0 0] ------- [0:0 9:0 30 6] [2 0] 0 0
r 2.297762246 _6_ RTR  --- 1143 tcp 41 [13a 6 0 800] ------- [0:0 9:0 30 6] [1 0] 1 0
f 2.297762246 _6_ RTR  --- 1143 tcp 41 [13a 6 0 800] ------- [0:0 9:0 29 5] [1 0] 1 0
r 2.299837496 _6_ RTR  --- 1144 tcp 41 [13a 6 0 800] ------- [0:0 9:0 30 6] [2 0] 1 0
f 2.299837496 _6_ RTR  --- 1144 tcp 41 [13a 6 0 800] ------- [0:0 9:0 29 5] [2 0] 1 0
r 2.301803958 _3_ AGT  --- 1104 ack 40 [13a 3 6 800] ------- [6:0 3:0 30 3] [549 0] 1 0
s 2.301803958 _3_ AGT  --- 1145 tcp 41 [0 0 0 0] ------- [3:0 6:0 32 0] [569 0] 0 0
r 2.301803958 _3_ RTR  --- 1145 tcp 41 [0 0 0 0] ------- [3:0 6:0 32 0] [569 0] 0 0
s 2.301803958 _3_ RTR  --- 1145 tcp 41 [0 0 0 0] ------- [3:0 6:0 30 6] [569 0] 0 0
r 2.303638420 _6_ AGT  --- 1145 tcp 41 [13a 6 3 800] ------- [3:0 6:0 30 6] [569 0] 1 0
s 2.303638420 _6_ AGT  --- 1146 ack 40 [0 0 0 0] ------- [6:0 3:0 32 0] [569 0] 0 0
r 2.303638420 _6_ RTR  --- 1146 ack 40 [0 0 0 0] ------- [6:0 3:0 32 0] [569 0] 0 0
s 2.303638420 _6_ RTR  --- 1146 ack 40 [0 0 0 0] ------- [6:0 3:0 30 3] [569 0] 0 0
r 2.305724881 _3_ AGT  --- 1107 ack 40 [13a 3 6 800] ------- [6:0 3:0 30 3] [550 0] 1 0
s 2.305724881 _3_ AGT  --- 1147 tcp 41 [0 0 0 0] ------- [3:0 6:0 32 0] [570 0] 0 0
r 2.305724881 _3_ RTR  --- 1147 tcp 41 [0 0 0 0] ------- [3:0 6:0 32 0] [570 0] 0 0
s 2.305724881 _3_ RTR  --- 1147 tcp 41 [0 0 0 0] ------- [3:0 6:0 30 6] [570 0] 0 0
r 2.307592163 _3_ AGT  --- 1110 ack 40 [13a 3 6 800] ------- [6:0 3:0 30 3] [551 0] 1 0
s 2.307592163 _3_ AGT  --- 1148 tcp 41 [0 0 0 0] ------- [3:0 6:0 32 0] [571 0] 0 0
r 2.307592163 _3_ RTR  --- 1148 tcp 41 [0 0 0 0] ------- [3:0 6:0 32 0] [571 0] 0 0
s 2.307592163 _3_ RTR  --- 1148 tcp 41 [0 0 0 0] ------- [3:0 6:0 30 6] [571 0] 0 0
r 2.309499445 _3_ AGT  --- 1111 ack 40 [13a 3 6 800] ------- [6:0 3:0 30 3] [552 0] 1 0
s 2.309499445 _3_ AGT  --- 1149 tcp 41 [0 0 0 0] ------- [3:0 6:0 32 0] [572 0] 0 0
r 2.309499445 _3_ RTR  --- 1149 tcp 41 [0 0 0 0] ------- [3:0 6:0 32 0] [572 0] 0 0
s 2.309499445 _3_ RTR  --- 1149 tcp 41 [0 0 0 0] ------- [3:0 6:0 30 6] [572 0] 0 0
r 2.311566727 _3_ AGT  --- 1112 ack 40 [13a 3 6 800] ------- [6:0 3:0 30 3] [553 0] 1 0
s 2.311566727 _3_ AGT  --- 1150 tcp 41 [0 0 0 0] ------- [3:0 6:0 32 0] [573 0] 0 0
r 2.311566727 _3_ RTR  --- 1150 tcp 41 [0 0 0 0] ------- [3:0 6:0 32 0] [573 0] 0 0
s 2.311566727 _3_ RTR  --- 1150 tcp 41 [0 0 0 0] ------- [3:0 6:0 30 6] [573 0] 0 0
r 2.313541189 _6_ AGT  --- 1147 tcp 41 [13a 6 3 800] ------- [3:0 6:0 30 6] [570 0] 1 0
s 2.313541189 _6_ AGT  --- 1151 ack 40 [0 0 0 0] ------- [6:0 3:0 32 0] [570 0] 0 0
r 2.313541189 _6_ RTR  --- 1151 ack 40 [0 0 0 0] ------- [6:0 3:0 32 0] [570 0] 0 0
s 2.313541189 _6_ RTR  --- 1151 ack 40 [0 0 0 0] ------- [6:0 3:0 30 3] [570 0] 0 0
r 2.315587650 _3_ AGT  --- 1115 ack 40 [13a 3 6 800] ------- [6:0 3:0 30 3] [554 0] 1 0
s 2.315587650 _3_ AGT  --- 1152 tcp 41 [0 0 0 0] ------- [3:0 6:0 32 0] [574 0] 0 0
r 2.315587650 _3_ RTR  --- 1152 tcp 41 [0 0 0 0] ------- [3:0 6:0 32 0] [574 0] 0 0
s 2.315587650 _3_ RTR  --- 1152 tcp 41 [0 0 0 0] ------- [3:0 6:0 30 6] [574 0] 0 0
r 2.317574932 _3_ AGT  --- 1117 ack 40 [13a 3 6 800] ------- [6:0 3:0 30 3] [555 0] 1 0
s 2.317574932 _3_ AGT  --- 1153 tcp 41 [0 0 0 0] ------- [3:0 6:0 32 0] [575 0] 0 0
r 2.317574932 _3_ RTR  --- 1153 tcp 41 [0 0 0 0] ------- [3:0 6:0 32 0] [575 0] 0 0
s 2.317574932 _3_ RTR  --- 1153 tcp 41 [0 0 0 0] ------- [3:0 6:0 30 6] [575 0] 0 0
r 2.319469394 _6_ AGT  --- 1148 tcp 41 [13a 6 3 800] ------- [3:0 6:0 30 6] [571 0] 1 0
s 2.319469394 _6_ AGT  --- 1154 ack 40 [0 0 0 0] ------- [6:0 3:0 32 0] [571 0] 0 0
r 2.319469394 _6_ RTR  --- 1154 ack 40 [0 0 0 0] ------- [6:0 3:0 32 0] [571 0] 0 0
s 2.319469394 _6_ RTR  --- 1154 ack 40 [0 0 0 0] ------- [6:0 3:0 30 3] [571 0] 0 0
r 2.321315855 _3_ AGT  --- 1119 ack 40 [13a 3 6 800] ------- [6:0 3:0 30 3] [556 0] 1 0
s 2.321315855 _3_ AGT  --- 1155 tcp 41 [0 0 0 0] ------- [3:0 6:0 32 0] [576 0] 0 0
r 2.321315855 _3_ RTR  --- 1155 tcp 41 [0 0 0 0] ------- [3:0 6:0 32 0] [576 0] 0 0
s 2.321315855 _3_ RTR  --- 1155 tcp 41 [0 0 0 0] ------- [3:0 6:0 30 6] [576 0] 0 0
r 2.323670316 _6_ AGT  --- 1149 tcp 41 [13a 6 3 800] ------- [3:0 6:0 30 6] [572 0] 1 0
s 2.323670316 _6_ AGT  --- 1156 ack 40 [0 0 0 0] ------- [6:0 3:0 32 0] [572 0] 0 0
r 2.323670316 _6_ RTR  --- 1156 ack 40 [0 0 0 0] ------- [6:0 3:0 32 0] [572 0] 0 0
s 2.323670316 _6_ RTR  --- 1156 ack 40 [0 0 0 0] ------- [6:0 3:0 30 3] [572 0] 0 0
r 2.325516778 _3_ AGT  --- 1125 ack 40 [13a 3 6 800] ------- [6:0 3:0 30 3] [557 0] 1 0
s 2.325516778 _3_ AGT  --- 1157 tcp 41 [0 0 0 0] ------- [3:0 6:0 32 0] [577 0] 0 0
r 2.325516778 _3_ RTR  --- 1157 tcp 41 [0 0 0 0] ------- [3:0 6:0 32 0] [577 0] 0 0
s 2.325516778 _3_ RTR  --- 1157 tcp 41 [0 0 0 0] ------- [3:0 6:0 30 6] [577 0] 0 0
r 2.327684059 _3_ AGT  --- 1127 ack 40 [13a 3 6 800] ------- [6:0 3:0 30 3] [558 0] 1 0
s 2.327684059 _3_ AGT  --- 1158 tcp 41 [0 0 0 0] ------- [3:0 6:0 32 0] [578 0] 0 0
r 2.327684059 _3_ RTR  --- 1158 tcp 41 [0 0 0 0] ------- [3:0 6:0 32 0] [578 0] 0 0
s 2.327684059 _3_ RTR  --- 1158 tcp 41 [0 0 0 0] ------- [3:0 6:0 30 6] [578 0] 0 0
r 2.329758521 _6_ AGT  --- 1150 tcp 41 [13a 6 3 800] ------- [3:0 6:0 30 6] [573 0] 1 0
s 2.329758521 _6_ AGT  --- 1159 ack 40 [0 0 0 0] ------- [6:0 3:0 32 0] [573 0] 0 0
r 2.329758521 _6_ RTR  --- 1159 ack 40 [0 0 0 0] ------- [6:0 3:0 32 0] [573 0] 0 0
s 2.329758521 _6_ RTR  --- 1159 ack 40 [0 0 0 0] ------- [6:0 3:0 30 3] [573 0] 0 0
r 2.331624982 _3_ AGT  --- 1129 ack 40 [13a 3 6 800] ------- [6:0 3:0 30 3] [559 0] 1 0
s 2.331624982 _3_ AGT  --- 1160 tcp 41 [0 0 0 0] ------- [3:0 6:0 32 0] [579 0] 0 0
r 2.331624982 _3_ RTR  --- 1160 tcp 41 [0 0 0 0] ------- [3:0 6:0 32 0] [579 0] 0 0
s 2.331624982 _3_ RTR  --- 1160 tcp 41 [0 0 0 0] ------- [3:0 6:0 30 6] [579 0] 0 0
r 2.333592264 _3_ AGT  --- 1130 ack 40 [13a 3 6 800] ------- [6:0 3:0 30 3] [560 0] 1 0
s 2.333592264 _3_ AGT  --- 1161 tcp 41 [0 0 0 0] ------- [3:0 6:0 32 0] [580 0] 0 0
r 2.333592264 _3_ RTR  --- 1161 tcp 41 [0 0 0 0] ------- [3:0 6:0 32 0] [580 0] 0 0
s 2.333592264 _3_ RTR  --- 1161 tcp 41 [0 0 0 0] ------- [3:0 6:0 30 6] [580 0] 0 0
r 2.335646725 _6_ AGT  --- 1152 tcp 41 [13a 6 3 800] ------- [3:0 6:0 30 6] [574 0] 1 0
s 2.335646725 _6_ AGT  --- 1162 ack 40 [0 0 0 0] ------- [6:0 3:0 32 0] [574 0] 0 0
r 2.335646725 _6_ RTR  --- 1162 ack 40 [0 0 0 0] ------- [6:0 3:0 32 0] [574 0] 0 0
s 2.335646725 _6_ RTR  --- 1162 ack 40 [0 0 0 0] ------- [6:0 3:0 30 3] [574 0] 0 0
r 2.337753186 _3_ AGT  --- 1132 ack 40 [13a 3 6 800] ------- [6:0 3:0 30 3] [561 0] 1 0
s 2.337753186 _3_ AGT  --- 1163 tcp 41 [0 0 0 0] ------- [3:0 6:0 32 0] [581 0] 0 0
r 2.337753186 _3_ RTR  --- 1163 tcp 41 [0 0 0 0] ------- [3:0 6:0 32 0] [581 0] 0 0
s 2.337753186 _3_ RTR  --- 1163 tcp 41 [0 0 0 0] ------- [3:0 6:0 30 6] [581 0] 0 0
r 2.339667647 _6_ AGT  --- 1153 tcp 41 [13a 6 3 800] ------- [3:0 6:0 30 6] [575 0] 1 0
s 2.339667647 _6_ AGT  --- 1164 ack 40 [0 0 0 0] ------- [6:0 3:0 32 0] [575 0] 0 0
r 2.339667647 _6_ RTR  --- 1164 ack 40 [0 0 0 0] ------- [6:0 3:0 32 0] [575 0] 0 0
s 2.339667647 _6_ RTR  --- 1164 ack 40 [0 0 0 0] ------- [6:0 3:0 30 3] [575 0] 0 0
r 2.341582929 _6_ AGT  --- 1155 tcp 41 [13a 6 3 800] ------- [3:0 6:0 30 6] [576 0] 1 0
s 2.341582929 _6_ AGT  --- 1165 ack 40 [0 0 0 0] ------- [6:0 3:0 32 0] [576 0] 0 0
r 2.341582929 _6_ RTR  --- 1165 ack 40 [0 0 0 0] ------- [6:0 3:0 32 0] [576 0] 0 0
s 2.341582929 _6_ RTR  --- 1165 ack 40 [0 0 0 0] ------- [6:0 3:0 30 3] [576 0] 0 0
r 2.343869390 _3_ AGT  --- 1133 ack 40 [13a 3 6 800] ------- [6:0 3:0 30 3] [562 0] 1 0
s 2.343869390 _3_ AGT  --- 1166 tcp 41 [0 0 0 0] ------- [3:0 6:0 32 0] [582 0] 0 0
r 2.343869390 _3_ RTR  --- 1166 tcp 41 [0 0 0 0] ------- [3:0 6:0 32 0] [582 0] 0 0
s 2.343869390 _3_ RTR  --- 1166 tcp 41 [0 0 0 0] ------- [3:0 6:0 30 6] [582 0] 0 0
r 2.345723851 _6_ AGT  --- 1157 tcp 41 [13a 6 3 800] ------- [3:0 6:0 30 6] [577 0] 1 0
s 2.345723851 _6_ AGT  --- 1167 ack 40 [0 0 0 0] ------- [6:0 3:0 32 0] [577 0] 0 0
r 2.345723851 _6_ RTR  --- 1167 ack 40 [0 0 0 0] ------- [6:0 3:0 32 0] [577 0] 0 0
s 2.345723851 _6_ RTR  --- 1167 ack 40 [0 0 0 0] ------- [6:0 3:0 30 3] [577 0] 0 0
r 2.347590312 _3_ AGT  --- 1134 ack 40 [13a 3 6 800] ------- [6:0 3:0 30 3] [563 0] 1 0
s 2.347590312 _3_ AGT  --- 1168 tcp 41 [0 0 0 0] ------- [3:0 6:0 32 0] [583 0] 0 0
r 2.347590312 _3_ RTR  --- 1168 tcp 41 [0 0 0 0] ------- [3:0 6:0 32 0] [583 0] 0 0
s 2.347590312 _3_ RTR  --- 1168 tcp 41 [0 0 0 0] ------- [3:0 6:0 30 6] [583 0] 0 0
r 2.349697594 _3_ AGT  --- 1135 ack 40 [13a 3 6 800] ------- [6:0 3:0 30 3] [564 0] 1 0
s 2.349697594 _3_ AGT  --- 1169 tcp 41 [0 0 0 0] ------- [3:0 6:0 32 0] [584 0] 0 0
r 2.349697594 _3_ RTR  --- 1169 tcp 41 [0 0 0 0] ------- [3:0 6:0 32 0] [584 0] 0 0
s 2.349697594 _3_ RTR  --- 1169 tcp 41 [0 0 0 0] ------- [3:0 6:0 30 6] [584 0] 0 0
r 2.351584875 _3_ AGT  --- 1138 ack 40 [13a 3 6 800] ------- [6:0 3:0 30 3] [565 0] 1 0
s 2.351584875 _3_ AGT  --- 1170 tcp 41 [0 0 0 0] ------- [3:0 6:0 32 0] [585 0] 0 0
r 2.351584875 _3_ RTR  --- 1170 tcp 41 [0 0 0 0] ------- [3:0 6:0 32 0] [585 0] 0 0
s 2.351584875 _3_ RTR  --- 1170 tcp 41 [0 0 0 0] ------- [3:0 6:0 30 6] [585 0] 0 0
r 2.353539336 _6_ AGT  --- 1158 tcp 41 [13a 6 3 800] ------- [3:0 6:0 30 6] [578 0] 1 0
s 2.353539336 _6_ AGT  --- 1171 ack 40 [0 0 0 0] ------- [6:0 3:0 32 0] [578 0] 0 0
r 2.353539336 _6_ RTR  --- 1171 ack 40 [0 0 0 0] ------- [6:0 3:0 32 0] [578 0] 0 0
s 2.353539336 _6_ RTR  --- 1171 ack 40 [0 0 0 0] ------- [6:0 3:0 30 3] [578 0] 0 0
r 2.355574618 _6_ AGT  --- 1160 tcp 41 [13a 6 3 800] ------- [3:0 6:0 30 6] [579 0] 1 0
s 2.355574618 _6_ AGT  --- 1172 ack 40 [0 0 0 0] ------- [6:0 3:0 32 0] [579 0] 0 0
r 2.355574618 _6_ RTR  --- 1172 ack 40 [0 0 0 0] ------- [6:0 3:0 32 0] [579 0] 0 0
s 2.355574618 _6_ RTR  --- 1172 ack 40 [0 0 0 0] ------- [6:0 3:0 30 3] [579 0] 0 0
r 2.357641079 _3_ AGT  --- 1139 ack 40 [13a 3 6 800] ------- [6:0 3:0 30 3] [566 0] 1 0
s 2.357641079 _3_ AGT  --- 1173 tcp 41 [0 0 0 0] ------- [3:0 6:0 32 0] [586 0] 0 0
r 2.357641079 _3_ RTR  --- 1173 tcp 41 [0 0 0 0] ------- [3:0 6:0 32 0] [586 0] 0 0
s 2.357641079 _3_ RTR  --- 1173 tcp 41 [0 0 0 0] ------- [3:0 6:0 30 6] [586 0] 0 0
r 2.359695540 _6_ AGT  --- 1161 tcp 41 [13a 6 3 800] ------- [3:0 6:0 30 6] [580 0] 1 0
s 2.359695540 _6_ AGT  --- 1174 ack 40 [0 0 0 0] ------- [6:0 3:0 32 0] [580 0] 0 0
r 2.359695540 _6_ RTR  --- 1174 ack 40 [0 0 0 0] ------- [6:0 3:0 32 0] [580 0] 0 0
s 2.359695540 _6_ RTR  --- 1174 ack 40 [0 0 0 0] ------- [6:0 3:0 30 3] [580 0] 0 0
r 2.361762001 _3_ AGT  --- 1141 ack 40 [13a 3 6 800] ------- [6:0 3:0 30 3] [567 0] 1 0
s 2.361762001 _3_ AGT  --- 1175 tcp 41 [0 0 0 0] ------- [3:0 6:0 32 0] [587 0] 0 0
r 2.361762001 _3_ RTR  --- 1175 tcp 41 [0 0 0 0] ------- [3:0 6:0 32 0] [587 0] 0 0
s 2.361762001 _3_ RTR  --- 1175 tcp 41 [0 0 0 0] ------- [3:0 6:0 30 6] [587 0] 0 0
r 2.363769282 _3_ AGT  --- 1142 ack 40 [13a 3 6 800] ------- [6:0 3:0 30 3] [568 0] 1 0
s 2.363769282 _3_ AGT  --- 1176 tcp 41 [0 0 0 0] ------- [3:0 6:0 32 0] [588 0] 0 0
r 2.363769282 _3_ RTR  --- 1176 tcp 41 [0 0 0 0] ------- [3:0 6:0 32 0] [588 0] 0 0
s 2.363769282 _3_ RTR  --- 1176 tcp 41 [0 0 0 0] ------- [3:0 6:0 30 6] [588 0] 0 0
r 2.365743743 _6_ AGT  --- 1163 tcp 41 [13a 6 3 800] ------- [3:0 6:0 30 6] [581 0] 1 0
s 2.365743743 _6_ AGT  --- 1177 ack 40 [0 0 0 0] ------- [6:0 3:0 32 0] [581 0] 0 0
r 2.365743743 _6_ RTR  --- 1177 ack 40 [0 0 0 0] ------- [6:0 3:0 32 0] [581 0] 0 0
s 2.365743743 _6_ RTR  --- 1177 ack 40 [0 0 0 0] ------- [6:0 3:0 30 3] [581 0] 0 0
r 2.367859024 _6_ AGT  --- 1166 tcp 41 [13a 6 3 800] ------- [3:0 6:0 30 6] [582 0] 1 0
s 2.367859024 _6_ AGT  --- 1178 ack 40 [0 0 0 0] ------- [6:0 3:0 32 0] [582 0] 0 0
r 2.367859024 _6_ RTR  --- 1178 ack 40 [0 0 0 0] ------- [6:0 3:0 32 0] [582 0] 0 0
s 2.367859024 _6_ RTR  --- 1178 ack 40 [0 0 0 0] ------- [6:0 3:0 30 3] [582 0] 0 0
r 2.369873309 _5_ RTR  --- 1143 tcp 41 [13a 5 6 800] ------- [0:0 9:0 29 5] [1 0] 2 0
f 2.369873309 _5_ RTR  --- 1143 tcp 41 [13a 5 6 800] ------- [0:0 9:0 28 9] [1 0] 2 0
r 2.371827670 _9_ AGT  --- 1143 tcp 41 [13a 9 5 800] ------- [0:0 9:0 28 9] [1 0] 3 0
s 2.371827670 _9_ AGT  --- 1179 ack 40 [0 0 0 0] ------- [9:0 0:0 32 0] [1 0] 0 0
r 2.371827670 _9_ RTR  --- 1179 ack 40 [0 0 0 0] ------- [9:0 0:0 32 0] [1 0] 0 0
s 2.371827670 _9_ RTR  --- 1179 ack 40 [0 0 0 0] ------- [9:0 0:0 30 5] [1 0] 0 0
r 2.373962404 _6_ AGT  --- 1168 tcp 41 [13a 6 3 800] ------- [3:0 6:0 30 6] [583 0] 1 0
s 2.373962404 _6_ AGT  --- 1180 ack 40 [0 0 0 0] ------- [6:0 3:0 32 0] [583 0] 0 0
r 2.373962404 _6_ RTR  --- 1180 ack 40 [0 0 0 0] ------- [6:0 3:0 32 0] [583 0] 0 0
s 2.373962404 _6_ RTR  --- 1180 ack 40 [0 0 0 0] ------- [6:0 3:0 30 3] [583 0] 0 0
r 2.375816689 _5_ RTR  --- 1144 tcp 41 [13a 5 6 800] ------- [0:0 9:0 29 5] [2 0] 2 0
f 2.375816689 _5_ RTR  --- 1144 tcp 41 [13a 5 6 800] ------- [0:0 9:0 28 9] [2 0] 2 0
r 2.377643911 _3_ AGT  --- 1146 ack 40 [13a 3 6 800] ------- [6:0 3:0 30 3] [569 0] 1 0
s 2.377643911 _3_ AGT  --- 1181 tcp 41 [0 0 0 0] ------- [3:0 6:0 32 0] [589 0] 0 0
r 2.377643911 _3_ RTR  --- 1181 tcp 41 [0 0 0 0] ------- [3:0 6:0 32 0] [589 0] 0 0
s 2.377643911 _3_ RTR  --- 1181 tcp 41 [0 0 0 0] ------- [3:0 6:0 30 6] [589 0] 0 0
r 2.379678846 _9_ AGT  --- 1144 tcp 41 [13a 9 5 800] ------- [0:0 9:0 28 9] [2 0] 3 0
s 2.379678846 _9_ AGT  --- 1182 ack 40 [0 0 0 0] ------- [9:0 0:0 32 0] [2 0] 0 0
r 2.379678846 _9_ RTR  --- 1182 ack 40 [0 0 0 0] ------- [9:0 0:0 32 0] [2 0] 0 0
s 2.379678846 _9_ RTR  --- 1182 ack 40 [0 0 0 0] ------- [9:0 0:0 30 5] [2 0] 0 0
r 2.381645208 _5_ RTR  --- 1179 ack 40 [13a 5 9 800] ------- [9:0 0:0 30 5] [1 0] 1 0
f 2.381645208 _5_ RTR  --- 1179 ack 40 [13a 5 9 800] ------- [9:0 0:0 29 6] [1 0] 1 0
r 2.383492356 _5_ RTR  --- 1182 ack 40 [13a 5 9 800] ------- [9:0 0:0 30 5] [2 0] 1 0
f 2.383492356 _5_ RTR  --- 1182 ack 40 [13a 5 9 800] ------- [9:0 0:0 29 6] [2 0] 1 0
r 2.385507391 _6_ AGT  --- 1169 tcp 41 [13a 6 3 800] ------- [3:0 6:0 30 6] [584 0] 1 0
s 2.385507391 _6_ AGT  --- 1183 ack 40 [0 0 0 0] ------- [6:0 3:0 32 0] [584 0] 0 0
r 2.385507391 _6_ RTR  --- 1183 ack 40 [0 0 0 0] ------- [6:0 3:0 32 0] [584 0] 0 0
s 2.385507391 _6_ RTR  --- 1183 ack 40 [0 0 0 0] ------- [6:0 3:0 30 3] [584 0] 0 0
r 2.387402672 _6_ AGT  --- 1170 tcp 41 [13a 6 3 800] ------- [3:0 6:0 30 6] [585 0] 1 0
s 2.387402672 _6_ AGT  --- 1184 ack 40 [0 0 0 0] ------- [6:0 3:0 32 0] [585 0] 0 0
r 2.387402672 _6_ RTR  --- 1184 ack 40 [0 0 0 0] ------- [6:0 3:0 32 0] [585 0] 0 0
s 2.387402672 _6_ RTR  --- 1184 ack 40 [0 0 0 0] ------- [6:0 3:0 30 3] [585 0] 0 0
r 2.389369717 _6_ RTR  --- 1179 ack 40 [13a 6 5 800] ------- [9:0 0:0 29 6] [1 0] 2 0
f 2.389369717 _6_ RTR  --- 1179 ack 40 [13a 6 5 800] ------- [9:0 0:0 28 0] [1 0] 2 0
r 2.391236178 _3_ AGT  --- 1151 ack 40 [13a 3 6 800] ------- [6:0 3:0 30 3] [570 0] 1 0
s 2.391236178 _3_ AGT  --- 1185 tcp 41 [0 0 0 0] ------- [3:0 6:0 32 0] [590 0] 0 0
r 2.391236178 _3_ RTR  --- 1185 tcp 41 [0 0 0 0] ------- [3:0 6:0 32 0] [590 0] 0 0
s 2.391236178 _3_ RTR  --- 1185 tcp 41 [0 0 0 0] ------- [3:0 6:0 30 6] [590 0] 0 0
r 2.393143459 _3_ AGT  --- 1154 ack 40 [13a 3 6 800] ------- [6:0 3:0 30 3] [571 0] 1 0
s 2.393143459 _3_ AGT  --- 1186 tcp 41 [0 0 0 0] ------- [3:0 6:0 32 0] [591 0] 0 0
r 2.393143459 _3_ RTR  --- 1186 tcp 41 [0 0 0 0] ------- [3:0 6:0 32 0] [591 0] 0 0
s 2.393143459 _3_ RTR  --- 1186 tcp 41 [0 0 0 0] ------- [3:0 6:0 30 6] [591 0] 0 0
r 2.395037919 _6_ AGT  --- 1173 tcp 41 [13a 6 3 800] ------- [3:0 6:0 30 6] [586 0] 1 0
s 2.395037919 _6_ AGT  --- 1187 ack 40 [0 0 0 0] ------- [6:0 3:0 32 0] [586 0] 0 0
r 2.395037919 _6_ RTR  --- 1187 ack 40 [0 0 0 0] ------- [6:0 3:0 32 0] [586 0] 0 0
s 2.395037919 _6_ RTR  --- 1187 ack 40 [0 0 0 0] ------- [6:0 3:0 30 3] [586 0] 0 0
r 2.396964964 _6_ RTR  --- 1182 ack 40 [13a 6 5 800] ------- [9:0 0:0 29 6] [2 0] 2 0
f 2.396964964 _6_ RTR  --- 1182 ack 40 [13a 6 5 800] ------- [9:0 0:0 28 0] [2 0] 2 0
r 2.399051424 _3_ AGT  --- 1156 ack 40 [13a 3 6 800] ------- [6:0 3:0 30 3] [572 0] 1 0
s 2.399051424 _3_ AGT  --- 1188 tcp 41 [0 0 0 0] ------- [3:0 6:0 32 0] [592 0] 0 0
r 2.399051424 _3_ RTR  --- 1188 tcp 41 [0 0 0 0] ------- [3:0 6:0 32 0] [592 0] 0 0
s 2.399051424 _3_ RTR  --- 1188 tcp 41 [0 0 0 0] ------- [3:0 6:0 30 6] [592 0] 0 0
r 2.401005885 _6_ AGT  --- 1175 tcp 41 [13a 6 3 800] ------- [3:0 6:0 30 6] [587 0] 1 0
s 2.401005885 _6_ AGT  --- 1189 ack 40 [0 0 0 0] ------- [6:0 3:0 32 0] [587 0] 0 0
r 2.401005885 _6_ RTR  --- 1189 ack 40 [0 0 0 0] ------- [6:0 3:0 32 0] [587 0] 0 0
s 2.401005885 _6_ RTR  --- 1189 ack 40 [0 0 0 0] ------- [6:0 3:0 30 3] [587 0] 0 0
r 2.403061166 _6_ AGT  --- 1176 tcp 41 [13a 6 3 800] ------- [3:0 6:0 30 6] [588 0] 1 0
s 2.403061166 _6_ AGT  --- 1190 ack 40 [0 0 0 0] ------- [6:0 3:0 32 0] [588 0] 0 0
r 2.403061166 _6_ RTR  --- 1190 ack 40 [0 0 0 0] ------- [6:0 3:0 32 0] [588 0] 0 0
s 2.403061166 _6_ RTR  --- 1190 ack 40 [0 0 0 0] ------- [6:0 3:0 30 3] [588 0] 0 0
r 2.405107626 _3_ AGT  --- 1159 ack 40 [13a 3 6 800] ------- [6:0 3:0 30 3] [573 0] 1 0
s 2.405107626 _3_ AGT  --- 1191 tcp 41 [0 0 0 0] ------- [3:0 6:0 32 0] [593 0] 0 0
r 2.405107626 _3_ RTR  --- 1191 tcp 41 [0 0 0 0] ------- [3:0 6:0 32 0] [593 0] 0 0
s 2.405107626 _3_ RTR  --- 1191 tcp 41 [0 0 0 0] ------- [3:0 6:0 30 6] [593 0] 0 0
r 2.407202087 _6_ AGT  --- 1181 tcp 41 [13a 6 3 800] ------- [3:0 6:0 30 6] [589 0] 1 0
s 2.407202087 _6_ AGT  --- 1192 ack 40 [0 0 0 0] ------- [6:0 3:0 32 0] [589 0] 0 0
r 2.407202087 _6_ RTR  --- 1192 ack 40 [0 0 0 0] ------- [6:0 3:0 32 0] [589 0] 0 0
s 2.407202087 _6_ RTR  --- 1192 ack 40 [0 0 0 0] ------- [6:0 3:0 30 3] [589 0] 0 0
r 2.409188547 _3_ AGT  --- 1162 ack 40 [13a 3 6 800] ------- [6:0 3:0 30 3] [574 0] 1 0
s 2.409188547 _3_ AGT  --- 1193 tcp 41 [0 0 0 0] ------- [3:0 6:0 32 0] [594 0] 0 0
r 2.409188547 _3_ RTR  --- 1193 tcp 41 [0 0 0 0] ------- [3:0 6:0 32 0] [594 0] 0 0
s 2.409188547 _3_ RTR  --- 1193 tcp 41 [0 0 0 0] ------- [3:0 6:0 30 6] [594 0] 0 0
r 2.411115828 _3_ AGT  --- 1164 ack 40 [13a 3 6 800] ------- [6:0 3:0 30 3] [575 0] 1 0
s 2.411115828 _3_ AGT  --- 1194 tcp 41 [0 0 0 0] ------- [3:0 6:0 32 0] [595 0] 0 0
r 2.411115828 _3_ RTR  --- 1194 tcp 41 [0 0 0 0] ------- [3:0 6:0 32 0] [595 0] 0 0
s 2.411115828 _3_ RTR  --- 1194 tcp 41 [0 0 0 0] ------- [3:0 6:0 30 6] [595 0] 0 0
r 2.413063108 _3_ AGT  --- 1165 ack 40 [13a 3 6 800] ------- [6:0 3:0 30 3] [576 0] 1 0
s 2.413063108 _3_ AGT  --- 1195 tcp 41 [0 0 0 0] ------- [3:0 6:0 32 0] [596 0] 0 0
r 2.413063108 _3_ RTR  --- 1195 tcp 41 [0 0 0 0] ------- [3:0 6:0 32 0] [596 0] 0 0
s 2.413063108 _3_ RTR  --- 1195 tcp 41 [0 0 0 0] ------- [3:0 6:0 30 6] [596 0] 0 0
r 2.414950389 _3_ AGT  --- 1167 ack 40 [13a 3 6 800] ------- [6:0 3:0 30 3] [577 0] 1 0
s 2.414950389 _3_ AGT  --- 1196 tcp 41 [0 0 0 0] ------- [3:0 6:0 32 0] [597 0] 0 0
r 2.414950389 _3_ RTR  --- 1196 tcp 41 [0 0 0 0] ------- [3:0 6:0 32 0] [597 0] 0 0
s 2.414950389 _3_ RTR  --- 1196 tcp 41 [0 0 0 0] ------- [3:0 6:0 30 6] [597 0] 0 0
r 2.416837669 _3_ AGT  --- 1171 ack 40 [13a 3 6 800] ------- [6:0 3:0 30 3] [578 0] 1 0
s 2.416837669 _3_ AGT  --- 1197 tcp 41 [0 0 0 0] ------- [3:0 6:0 32 0] [598 0] 0 0
r 2.416837669 _3_ RTR  --- 1197 tcp 41 [0 0 0 0] ------- [3:0 6:0 32 0] [598 0] 0 0
s 2.416837669 _3_ RTR  --- 1197 tcp 41 [0 0 0 0] ------- [3:0 6:0 30 6] [598 0] 0 0
r 2.418792130 _6_ AGT  --- 1185 tcp 41 [13a 6 3 800] ------- [3:0 6:0 30 6] [590 0] 1 0
s 2.418792130 _6_ AGT  --- 1198 ack 40 [0 0 0 0] ------- [6:0 3:0 32 0] [590 0] 0 0
r 2.418792130 _6_ RTR  --- 1198 ack 40 [0 0 0 0] ------- [6:0 3:0 32 0] [590 0] 0 0
s 2.418792130 _6_ RTR  --- 1198 ack 40 [0 0 0 0] ------- [6:0 3:0 30 3] [590 0] 0 0
r 2.420667410 _6_ AGT  --- 1186 tcp 41 [13a 6 3 800] ------- [3:0 6:0 30 6] [591 0] 1 0
s 2.420667410 _6_ AGT  --- 1199 ack 40 [0 0 0 0] ------- [6:0 3:0 32 0] [591 0] 0 0
r 2.420667410 _6_ RTR  --- 1199 ack 40 [0 0 0 0] ------- [6:0 3:0 32 0] [591 0] 0 0
s 2.420667410 _6_ RTR  --- 1199 ack 40 [0 0 0 0] ------- [6:0 3:0 30 3] [591 0] 0 0
r 2.422553870 _3_ AGT  --- 1172 ack 40 [13a 3 6 800] ------- [6:0 3:0 30 3] [579 0] 1 0
s 2.422553870 _3_ AGT  --- 1200 tcp 41 [0 0 0 0] ------- [3:0 6:0 32 0] [599 0] 0 0
r 2.422553870 _3_ RTR  --- 1200 tcp 41 [0 0 0 0] ------- [3:0 6:0 32 0] [599 0] 0 0
s 2.422553870 _3_ RTR  --- 1200 tcp 41 [0 0 0 0] ------- [3:0 6:0 30 6] [599 0] 0 0
r 2.424848331 _6_ AGT  --- 1188 tcp 41 [13a 6 3 800] ------- [3:0 6:0 30 6] [592 0] 1 0
s 2.424848331 _6_ AGT  --- 1201 ack 40 [0 0 0 0] ------- [6:0 3:0 32 0] [592 0] 0 0
r 2.424848331 _6_ RTR  --- 1201 ack 40 [0 0 0 0] ------- [6:0 3:0 32 0] [592 0] 0 0
s 2.424848331 _6_ RTR  --- 1201 ack 40 [0 0 0 0] ------- [6:0 3:0 30 3] [592 0] 0 0
r 2.426754791 _3_ AGT  --- 1174 ack 40 [13a 3 6 800] ------- [6:0 3:0 30 3] [580 0] 1 0
s 2.426754791 _3_ AGT  --- 1202 tcp 41 [0 0 0 0] ------- [3:0 6:0 32 0] [600 0] 0 0
r 2.426754791 _3_ RTR  --- 1202 tcp 41 [0 0 0 0] ------- [3:0 6:0 32 0] [600 0] 0 0
s 2.426754791 _3_ RTR  --- 1202 tcp 41 [0 0 0 0] ------- [3:0 6:0 30 6] [600 0] 0 0
r 2.428702071 _3_ AGT  --- 1177 ack 40 [13a 3 6 800] ------- [6:0 3:0 30 3] [581 0] 1 0
s 2.428702071 _3_ AGT  --- 1203 tcp 41 [0 0 0 0] ------- [3:0 6:0 32 0] [601 0] 0 0
r 2.428702071 _3_ RTR  --- 1203 tcp 41 [0 0 0 0] ------- [3:0 6:0 32 0] [601 0] 0 0
s 2.428702071 _3_ RTR  --- 1203 tcp 41 [0 0 0 0] ------- [3:0 6:0 30 6] [601 0] 0 0
r 2.430756531 _6_ AGT  --- 1191 tcp 41 [13a 6 3 800] ------- [3:0 6:0 30 6] [593 0] 1 0
s 2.430756531 _6_ AGT  --- 1204 ack 40 [0 0 0 0] ------- [6:0 3:0 32 0] [593 0] 0 0
r 2.430756531 _6_ RTR  --- 1204 ack 40 [0 0 0 0] ------- [6:0 3:0 32 0] [593 0] 0 0
s 2.430756531 _6_ RTR  --- 1204 ack 40 [0 0 0 0] ------- [6:0 3:0 30 3] [593 0] 0 0
r 2.432702992 _3_ AGT  --- 1178 ack 40 [13a 3 6 800] ------- [6:0 3:0 30 3] [582 0] 1 0
s 2.432702992 _3_ AGT  --- 1205 tcp 41 [0 0 0 0] ------- [3:0 6:0 32 0] [602 0] 0 0
r 2.432702992 _3_ RTR  --- 1205 tcp 41 [0 0 0 0] ------- [3:0 6:0 32 0] [602 0] 0 0
s 2.432702992 _3_ RTR  --- 1205 tcp 41 [0 0 0 0] ------- [3:0 6:0 30 6] [602 0] 0 0
r 2.434670272 _3_ AGT  --- 1180 ack 40 [13a 3 6 800] ------- [6:0 3:0 30 3] [583 0] 1 0
s 2.434670272 _3_ AGT  --- 1206 tcp 41 [0 0 0 0] ------- [3:0 6:0 32 0] [603 0] 0 0
r 2.434670272 _3_ RTR  --- 1206 tcp 41 [0 0 0 0] ------- [3:0 6:0 32 0] [603 0] 0 0
s 2.434670272 _3_ RTR  --- 1206 tcp 41 [0 0 0 0] ------- [3:0 6:0 30 6] [603 0] 0 0
r 2.436644732 _6_ AGT  --- 1193 tcp 41 [13a 6 3 800] ------- [3:0 6:0 30 6] [594 0] 1 0
s 2.436644732 _6_ AGT  --- 1207 ack 40 [0 0 0 0] ------- [6:0 3:0 32 0] [594 0] 0 0
r 2.436644732 _6_ RTR  --- 1207 ack 40 [0 0 0 0] ------- [6:0 3:0 32 0] [594 0] 0 0
s 2.436644732 _6_ RTR  --- 1207 ack 40 [0 0 0 0] ------- [6:0 3:0 30 3] [594 0] 0 0
r 2.438600012 _6_ AGT  --- 1194 tcp 41 [13a 6 3 800] ------- [3:0 6:0 30 6] [595 0] 1 0
s 2.438600012 _6_ AGT  --- 1208 ack 40 [0 0 0 0] ------- [6:0 3:0 32 0] [595 0] 0 0
r 2.438600012 _6_ RTR  --- 1208 ack 40 [0 0 0 0] ------- [6:0 3:0 32 0] [595 0] 0 0
s 2.438600012 _6_ RTR  --- 1208 ack 40 [0 0 0 0] ------- [6:0 3:0 30 3] [595 0] 0 0
r 2.440506472 _3_ AGT  --- 1183 ack 40 [13a 3 6 800] ------- [6:0 3:0 30 3] [584 0] 1 0
s 2.440506472 _3_ AGT  --- 1209 tcp 41 [0 0 0 0] ------- [3:0 6:0 32 0] [604 0] 0 0
r 2.440506472 _3_ RTR  --- 1209 tcp 41 [0 0 0 0] ------- [3:0 6:0 32 0] [604 0] 0 0
s 2.440506472 _3_ RTR  --- 1209 tcp 41 [0 0 0 0] ------- [3:0 6:0 30 6] [604 0] 0 0
r 2.442420932 _6_ AGT  --- 1195 tcp 41 [13a 6 3 800] ------- [3:0 6:0 30 6] [596 0] 1 0
s 2.442420932 _6_ AGT  --- 1210 ack 40 [0 0 0 0] ------- [6:0 3:0 32 0] [596 0] 0 0
r 2.442420932 _6_ RTR  --- 1210 ack 40 [0 0 0 0] ------- [6:0 3:0 32 0] [596 0] 0 0
s 2.442420932 _6_ RTR  --- 1210 ack 40 [0 0 0 0] ------- [6:0 3:0 30 3] [596 0] 0 0
r 2.444587392 _3_ AGT  --- 1184 ack 40 [13a 3 6 800] ------- [6:0 3:0 30 3] [585 0] 1 0
s 2.444587392 _3_ AGT  --- 1211 tcp 41 [0 0 0 0] ------- [3:0 6:0 32 0] [605 0] 0 0
r 2.444587392 _3_ RTR  --- 1211 tcp 41 [0 0 0 0] ------- [3:0 6:0 32 0] [605 0] 0 0
s 2.444587392 _3_ RTR  --- 1211 tcp 41 [0 0 0 0] ------- [3:0 6:0 30 6] [605 0] 0 0
r 2.446614657 _0_ AGT  --- 1179 ack 40 [13a 0 6 800] ------- [9:0 0:0 28 0] [1 0] 3 0
s 2.446614657 _0_ AGT  --- 1212 tcp 41 [0 0 0 0] ------- [0:0 9:0 32 0] [3 0] 0 0
r 2.446614657 _0_ RTR  --- 1212 tcp 41 [0 0 0 0] ------- [0:0 9:0 32 0] [3 0] 0 0
s 2.446614657 _0_ AGT  --- 1213 tcp 41 [0 0 0 0] ------- [0:0 9:0 32 0] [4 0] 0 0
r 2.446614657 _0_ RTR  --- 1213 tcp 41 [0 0 0 0] ------- [0:0 9:0 32 0] [4 0] 0 0
s 2.446614657 _0_ RTR  --- 1212 tcp 41 [0 0 0 0] ------- [0:0 9:0 30 6] [3 0] 0 0
s 2.446614657 _0_ RTR  --- 1213 tcp 41 [0 0 0 0] ------- [0:0 9:0 30 6] [4 0] 0 0
r 2.448549101 _6_ RTR  --- 1212 tcp 41 [13a 6 0 800] ------- [0:0 9:0 30 6] [3 0] 1 0
f 2.448549101 _6_ RTR  --- 1212 tcp 41 [13a 6 0 800] ------- [0:0 9:0 29 5] [3 0] 1 0
r 2.450415561 _3_ AGT  --- 1187 ack 40 [13a 3 6 800] ------- [6:0 3:0 30 3] [586 0] 1 0
s 2.450415561 _3_ AGT  --- 1214 tcp 41 [0 0 0 0] ------- [3:0 6:0 32 0] [606 0] 0 0
r 2.450415561 _3_ RTR  --- 1214 tcp 41 [0 0 0 0] ------- [3:0 6:0 32 0] [606 0] 0 0
s 2.450415561 _3_ RTR  --- 1214 tcp 41 [0 0 0 0] ------- [3:0 6:0 30 6] [606 0] 0 0
r 2.452270021 _6_ AGT  --- 1196 tcp 41 [13a 6 3 800] ------- [3:0 6:0 30 6] [597 0] 1 0
s 2.452270021 _6_ AGT  --- 1215 ack 40 [0 0 0 0] ------- [6:0 3:0 32 0] [597 0] 0 0
r 2.452270021 _6_ RTR  --- 1215 ack 40 [0 0 0 0] ------- [6:0 3:0 32 0] [597 0] 0 0
s 2.452270021 _6_ RTR  --- 1215 ack 40 [0 0 0 0] ------- [6:0 3:0 30 3] [597 0] 0 0
r 2.454376466 _0_ AGT  --- 1182 ack 40 [13a 0 6 800] ------- [9:0 0:0 28 0] [2 0] 3 0
s 2.454376466 _0_ AGT  --- 1216 tcp 41 [0 0 0 0] ------- [0:0 9:0 32 0] [5 0] 0 0
r 2.454376466 _0_ RTR  --- 1216 tcp 41 [0 0 0 0] ------- [0:0 9:0 32 0] [5 0] 0 0
s 2.454376466 _0_ AGT  --- 1217 tcp 41 [0 0 0 0] ------- [0:0 9:0 32 0] [6 0] 0 0
r 2.454376466 _0_ RTR  --- 1217 tcp 41 [0 0 0 0] ------- [0:0 9:0 32 0] [6 0] 0 0
s 2.454376466 _0_ RTR  --- 1216 tcp 41 [0 0 0 0] ------- [0:0 9:0 30 6] [5 0] 0 0
s 2.454376466 _0_ RTR  --- 1217 tcp 41 [0 0 0 0] ------- [0:0 9:0 30 6] [6 0] 0 0
r 2.456370911 _6_ RTR  --- 1213 tcp 41 [13a 6 0 800] ------- [0:0 9:0 30 6] [4 0] 1 0
f 2.456370911 _6_ RTR  --- 1213 tcp 41 [13a 6 0 800] ------- [0:0 9:0 29 5] [4 0] 1 0
r 2.458455852 _6_ AGT  --- 1197 tcp 41 [13a 6 3 800] ------- [3:0 6:0 30 6] [598 0] 1 0
s 2.458455852 _6_ AGT  --- 1218 ack 40 [0 0 0 0] ------- [6:0 3:0 32 0] [598 0] 0 0
r 2.458455852 _6_ RTR  --- 1218 ack 40 [0 0 0 0] ------- [6:0 3:0 32 0] [598 0] 0 0
s 2.458455852 _6_ RTR  --- 1218 ack 40 [0 0 0 0] ------- [6:0 3:0 30 3] [598 0] 0 0
r 2.460322312 _3_ AGT  --- 1189 ack 40 [13a 3 6 800] ------- [6:0 3:0 30 3] [587 0] 1 0
s 2.460322312 _3_ AGT  --- 1219 tcp 41 [0 0 0 0] ------- [3:0 6:0 32 0] [607 0] 0 0
r 2.460322312 _3_ RTR  --- 1219 tcp 41 [0 0 0 0] ------- [3:0 6:0 32 0] [607 0] 0 0
s 2.460322312 _3_ RTR  --- 1219 tcp 41 [0 0 0 0] ------- [3:0 6:0 30 6] [607 0] 0 0
r 2.462349592 _3_ AGT  --- 1190 ack 40 [13a 3 6 800] ------- [6:0 3:0 30 3] [588 0] 1 0
s 2.462349592 _3_ AGT  --- 1220 tcp 41 [0 0 0 0] ------- [3:0 6:0 32 0] [608 0] 0 0
r 2.462349592 _3_ RTR  --- 1220 tcp 41 [0 0 0 0] ------- [3:0 6:0 32 0] [608 0] 0 0
s 2.462349592 _3_ RTR  --- 1220 tcp 41 [0 0 0 0] ------- [3:0 6:0 30 6] [608 0] 0 0
r 2.464344052 _6_ AGT  --- 1200 tcp 41 [13a 6 3 800] ------- [3:0 6:0 30 6] [599 0] 1 0
s 2.464344052 _6_ AGT  --- 1221 ack 40 [0 0 0 0] ------- [6:0 3:0 32 0] [599 0] 0 0
r 2.464344052 _6_ RTR  --- 1221 ack 40 [0 0 0 0] ------- [6:0 3:0 32 0] [599 0] 0 0
s 2.464344052 _6_ RTR  --- 1221 ack 40 [0 0 0 0] ------- [6:0 3:0 30 3] [599 0] 0 0
r 2.466370512 _3_ AGT  --- 1192 ack 40 [13a 3 6 800] ------- [6:0 3:0 30 3] [589 0] 1 0
s 2.466370512 _3_ AGT  --- 1222 tcp 41 [0 0 0 0] ------- [3:0 6:0 32 0] [609 0] 0 0
r 2.466370512 _3_ RTR  --- 1222 tcp 41 [0 0 0 0] ------- [3:0 6:0 32 0] [609 0] 0 0
s 2.466370512 _3_ RTR  --- 1222 tcp 41 [0 0 0 0] ------- [3:0 6:0 30 6] [609 0] 0 0
r 2.468424972 _6_ AGT  --- 1202 tcp 41 [13a 6 3 800] ------- [3:0 6:0 30 6] [600 0] 1 0
s 2.468424972 _6_ AGT  --- 1223 ack 40 [0 0 0 0] ------- [6:0 3:0 32 0] [600 0] 0 0
r 2.468424972 _6_ RTR  --- 1223 ack 40 [0 0 0 0] ------- [6:0 3:0 32 0] [600 0] 0 0
s 2.468424972 _6_ RTR  --- 1223 ack 40 [0 0 0 0] ------- [6:0 3:0 30 3] [600 0] 0 0
r 2.470329894 _6_ RTR  --- 1216 tcp 41 [13a 6 0 800] ------- [0:0 9:0 30 6] [5 0] 1 0
f 2.470329894 _6_ RTR  --- 1216 tcp 41 [13a 6 0 800] ------- [0:0 9:0 29 5] [5 0] 1 0
r 2.472465154 _6_ RTR  --- 1217 tcp 41 [13a 6 0 800] ------- [0:0 9:0 30 6] [6 0] 1 0
f 2.472465154 _6_ RTR  --- 1217 tcp 41 [13a 6 0 800] ------- [0:0 9:0 29 5] [6 0] 1 0
r 2.474331614 _3_ AGT  --- 1198 ack 40 [13a 3 6 800] ------- [6:0 3:0 30 3] [590 0] 1 0