M 1.00000 0 (618.00, 450.00, 0.00), (184.00, 391.00), 4.00
M 1.00000 1 (55.00, 33.00, 0.00), (118.00, 106.00), 6.00
M 1.00000 2 (287.00, 237.00, 0.00), (459.00, 770.00), 4.00
M 1.00000 3 (612.00, 338.00, 0.00), (543.00, 381.00), 10.00
M 1.00000 4 (787.00, 688.00, 0.00), (709.00, 166.00), 3.00
M 1.00000 5 (626.00, 487.00, 0.00), (128.00, 449.00), 7.00
M 1.00000 6 (553.00, 433.00, 0.00), (607.00, 881.00), 9.00
M 1.00000 7 (968.00, 53.00, 0.00), (399.00, 780.00), 9.00
M 1.00000 8 (751.00, 631.00, 0.00), (841.00, 504.00), 5.00
M 1.00000 9 (291.00, 947.00, 0.00), (65.00, 203.00), 10.00
s 1.000000000 _0_ AGT  --- 0 tcp 40 [0 0 0 0] ------- [0:0 4:0 32 0] [0 0] 0 0
r 1.000000000 _0_ RTR  --- 0 tcp 40 [0 0 0 0] ------- [0:0 4:0 32 0] [0 0] 0 0
s 1.000000000 _0_ RTR  --- 0 AODV 48 [0 0 0 0] ------- [0:255 -1:255 30 0] [0x2 1 1 [4 0] [0 4]] (REQUEST)
r 1.000988126 _5_ RTR  --- 0 AODV 48 [0 ffffffff 0 800] ------- [0:255 -1:255 30 0] [0x2 1 1 [4 0] [0 4]] (REQUEST)
r 1.000988224 _6_ RTR  --- 0 AODV 48 [0 ffffffff 0 800] ------- [0:255 -1:255 30 0] [0x2 1 1 [4 0] [0 4]] (REQUEST)
r 1.000988374 _3_ RTR  --- 0 AODV 48 [0 ffffffff 0 800] ------- [0:255 -1:255 30 0] [0x2 1 1 [4 0] [0 4]] (REQUEST)
r 1.000988749 _8_ RTR  --- 0 AODV 48 [0 ffffffff 0 800] ------- [0:255 -1:255 30 0] [0x2 1 1 [4 0] [0 4]] (REQUEST)
s 1.001869353 _5_ RTR  --- 0 AODV 48 [0 ffffffff 0 800] ------- [5:255 -1:255 29 0] [0x2 2 1 [4 0] [0 4]] (REQUEST)
r 1.003017479 _0_ RTR  --- 0 AODV 48 [0 ffffffff 5 800] ------- [5:255 -1:255 29 0] [0x2 2 1 [4 0] [0 4]] (REQUEST)
r 1.003017655 _6_ RTR  --- 0 AODV 48 [0 ffffffff 5 800] ------- [5:255 -1:255 29 0] [0x2 2 1 [4 0] [0 4]] (REQUEST)
r 1.003017852 _3_ RTR  --- 0 AODV 48 [0 ffffffff 5 800] ------- [5:255 -1:255 29 0] [0x2 2 1 [4 0] [0 4]] (REQUEST)
r 1.003017989 _8_ RTR  --- 0 AODV 48 [0 ffffffff 5 800] ------- [5:255 -1:255 29 0] [0x2 2 1 [4 0] [0 4]] (REQUEST)
s 1.004118366 _8_ RTR  --- 0 AODV 48 [0 ffffffff 0 800] ------- [8:255 -1:255 29 0] [0x2 2 1 [4 0] [0 4]] (REQUEST)
s 1.005399958 _6_ RTR  --- 0 AODV 48 [0 ffffffff 0 800] ------- [6:255 -1:255 29 0] [0x2 2 1 [4 0] [0 4]] (REQUEST)
r 1.005426591 _4_ RTR  --- 0 AODV 48 [0 ffffffff 8 800] ------- [8:255 -1:255 29 0] [0x2 2 1 [4 0] [0 4]] (REQUEST)
s 1.005426591 _4_ RTR  --- 0 AODV 44 [0 0 0 0] ------- [4:255 0:255 30 8] [0x4 1 [4 4] 10.000000] (REPLY)
r 1.005427002 _5_ RTR  --- 0 AODV 48 [0 ffffffff 8 800] ------- [8:255 -1:255 29 0] [0x2 2 1 [4 0] [0 4]] (REQUEST)
r 1.005427115 _0_ RTR  --- 0 AODV 48 [0 ffffffff 8 800] ------- [8:255 -1:255 29 0] [0x2 2 1 [4 0] [0 4]] (REQUEST)
s 1.008979928 _3_ RTR  --- 0 AODV 48 [0 ffffffff 0 800] ------- [3:255 -1:255 29 0] [0x2 2 1 [4 0] [0 4]] (REQUEST)
r 1.010046164 _8_ RTR  --- 0 AODV 44 [13a 8 4 800] ------- [4:255 0:255 30 8] [0x4 1 [4 4] 10.000000] (REPLY)
f 1.010046164 _8_ RTR  --- 0 AODV 44 [13a 8 4 800] ------- [4:255 0:255 29 0] [0x4 2 [4 4] 10.000000] (REPLY)
r 1.015098405 _0_ RTR  --- 0 AODV 44 [13a 0 8 800] ------- [4:255 0:255 29 0] [0x4 2 [4 4] 10.000000] (REPLY)
s 1.015098405 _0_ RTR  --- 0 tcp 40 [0 0 0 0] ------- [0:0 4:0 30 8] [0 0] 0 0
r 1.017104652 _8_ RTR  --- 0 tcp 40 [13a 8 0 800] ------- [0:0 4:0 30 8] [0 0] 1 0
f 1.017104652 _8_ RTR  --- 0 tcp 40 [13a 8 0 800] ------- [0:0 4:0 29 4] [0 0] 1 0
r 1.018949326 _4_ AGT  --- 0 tcp 40 [13a 4 8 800] ------- [0:0 4:0 29 4] [0 0] 2 0
s 1.018949326 _4_ AGT  --- 1 ack 40 [0 0 0 0] ------- [4:0 0:0 32 0] [0 0] 0 0
r 1.018949326 _4_ RTR  --- 1 ack 40 [0 0 0 0] ------- [4:0 0:0 32 0] [0 0] 0 0
s 1.018949326 _4_ RTR  --- 1 ack 40 [0 0 0 0] ------- [4:0 0:0 30 8] [0 0] 0 0
r 1.020794000 _8_ RTR  --- 1 ack 40 [13a 8 4 800] ------- [4:0 0:0 30 8] [0 0] 1 0
f 1.020794000 _8_ RTR  --- 1 ack 40 [13a 8 4 800] ------- [4:0 0:0 29 0] [0 0] 1 0
r 1.022860246 _0_ AGT  --- 1 ack 40 [13a 0 8 800] ------- [4:0 0:0 29 0] [0 0] 2 0
s 1.022860246 _0_ AGT  --- 2 tcp 1540 [0 0 0 0] ------- [0:0 4:0 32 0] [1 0] 0 0
r 1.022860246 _0_ RTR  --- 2 tcp 1540 [0 0 0 0] ------- [0:0 4:0 32 0] [1 0] 0 0
s 1.022860246 _0_ AGT  --- 3 tcp 1540 [0 0 0 0] ------- [0:0 4:0 32 0] [2 0] 0 0
r 1.022860246 _0_ RTR  --- 3 tcp 1540 [0 0 0 0] ------- [0:0 4:0 32 0] [2 0] 0 0
s 1.022860246 _0_ RTR  --- 2 tcp 1540 [0 0 0 0] ------- [0:0 4:0 30 8] [1 0] 0 0
s 1.022860246 _0_ RTR  --- 3 tcp 1540 [0 0 0 0] ------- [0:0 4:0 30 8] [2 0] 0 0
r 1.036706492 _8_ RTR  --- 2 tcp 1540 [13a 8 0 800] ------- [0:0 4:0 30 8] [1 0] 1 0
f 1.036706492 _8_ RTR  --- 2 tcp 1540 [13a 8 0 800] ------- [0:0 4:0 29 4] [1 0] 1 0
r 1.050691166 _4_ AGT  --- 2 tcp 1540 [13a 4 8 800] ------- [0:0 4:0 29 4] [1 0] 2 0
s 1.050691166 _4_ AGT  --- 4 ack 40 [0 0 0 0] ------- [4:0 0:0 32 0] [1 0] 0 0
r 1.050691166 _4_ RTR  --- 4 ack 40 [0 0 0 0] ------- [4:0 0:0 32 0] [1 0] 0 0
s 1.050691166 _4_ RTR  --- 4 ack 40 [0 0 0 0] ------- [4:0 0:0 30 8] [1 0] 0 0
r 1.052635840 _8_ RTR  --- 4 ack 40 [13a 8 4 800] ------- [4:0 0:0 30 8] [1 0] 1 0
f 1.052635840 _8_ RTR  --- 4 ack 40 [13a 8 4 800] ------- [4:0 0:0 29 0] [1 0] 1 0
r 1.054762087 _0_ AGT  --- 4 ack 40 [13a 0 8 800] ------- [4:0 0:0 29 0] [1 0] 2 0
s 1.054762087 _0_ AGT  --- 5 tcp 1540 [0 0 0 0] ------- [0:0 4:0 32 0] [3 0] 0 0
r 1.054762087 _0_ RTR  --- 5 tcp 1540 [0 0 0 0] ------- [0:0 4:0 32 0] [3 0] 0 0
s 1.054762087 _0_ AGT  --- 6 tcp 1540 [0 0 0 0] ------- [0:0 4:0 32 0] [4 0] 0 0
r 1.054762087 _0_ RTR  --- 6 tcp 1540 [0 0 0 0] ------- [0:0 4:0 32 0] [4 0] 0 0
s 1.054762087 _0_ RTR  --- 5 tcp 1540 [0 0 0 0] ------- [0:0 4:0 30 8] [3 0] 0 0
s 1.054762087 _0_ RTR  --- 6 tcp 1540 [0 0 0 0] ------- [0:0 4:0 30 8] [4 0] 0 0
r 1.056144492 _0_ RTR  --- 0 AODV 48 [0 ffffffff 6 800] ------- [6:255 -1:255 29 0] [0x2 2 1 [4 0] [0 4]] (REQUEST)
r 1.056144570 _5_ RTR  --- 0 AODV 48 [0 ffffffff 6 800] ------- [6:255 -1:255 29 0] [0x2 2 1 [4 0] [0 4]] (REQUEST)
r 1.056144642 _3_ RTR  --- 0 AODV 48 [0 ffffffff 6 800] ------- [6:255 -1:255 29 0] [0x2 2 1 [4 0] [0 4]] (REQUEST)
r 1.069676739 _8_ RTR  --- 3 tcp 1540 [13a 8 0 800] ------- [0:0 4:0 30 8] [2 0] 1 0
f 1.069676739 _8_ RTR  --- 3 tcp 1540 [13a 8 0 800] ------- [0:0 4:0 29 4] [2 0] 1 0
r 1.083701413 _4_ AGT  --- 3 tcp 1540 [13a 4 8 800] ------- [0:0 4:0 29 4] [2 0] 2 0
s 1.083701413 _4_ AGT  --- 7 ack 40 [0 0 0 0] ------- [4:0 0:0 32 0] [2 0] 0 0
r 1.083701413 _4_ RTR  --- 7 ack 40 [0 0 0 0] ------- [4:0 0:0 32 0] [2 0] 0 0
s 1.083701413 _4_ RTR  --- 7 ack 40 [0 0 0 0] ------- [4:0 0:0 30 8] [2 0] 0 0
r 1.085646086 _8_ RTR  --- 7 ack 40 [13a 8 4 800] ------- [4:0 0:0 30 8] [2 0] 1 0
f 1.085646086 _8_ RTR  --- 7 ack 40 [13a 8 4 800] ------- [4:0 0:0 29 0] [2 0] 1 0
r 1.099623082 _8_ RTR  --- 5 tcp 1540 [13a 8 0 800] ------- [0:0 4:0 30 8] [3 0] 1 0
f 1.099623082 _8_ RTR  --- 5 tcp 1540 [13a 8 0 800] ------- [0:0 4:0 29 4] [3 0] 1 0
r 1.113530078 _8_ RTR  --- 6 tcp 1540 [13a 8 0 800] ------- [0:0 4:0 30 8] [4 0] 1 0
f 1.113530078 _8_ RTR  --- 6 tcp 1540 [13a 8 0 800] ------- [0:0 4:0 29 4] [4 0] 1 0
r 1.115396326 _0_ AGT  --- 7 ack 40 [13a 0 8 800] ------- [4:0 0:0 29 0] [2 0] 2 0
s 1.115396326 _0_ AGT  --- 8 tcp 1540 [0 0 0 0] ------- [0:0 4:0 32 0] [5 0] 0 0
r 1.115396326 _0_ RTR  --- 8 tcp 1540 [0 0 0 0] ------- [0:0 4:0 32 0] [5 0] 0 0
s 1.115396326 _0_ AGT  --- 9 tcp 1540 [0 0 0 0] ------- [0:0 4:0 32 0] [6 0] 0 0
r 1.115396326 _0_ RTR  --- 9 tcp 1540 [0 0 0 0] ------- [0:0 4:0 32 0] [6 0] 0 0
s 1.115396326 _0_ RTR  --- 8 tcp 1540 [0 0 0 0] ------- [0:0 4:0 30 8] [5 0] 0 0
s 1.115396326 _0_ RTR  --- 9 tcp 1540 [0 0 0 0] ------- [0:0 4:0 30 8] [6 0] 0 0
r 1.116759028 _0_ RTR  --- 0 AODV 48 [0 ffffffff 3 800] ------- [3:255 -1:255 29 0] [0x2 2 1 [4 0] [0 4]] (REQUEST)
r 1.116759028 _6_ RTR  --- 0 AODV 48 [0 ffffffff 3 800] ------- [3:255 -1:255 29 0] [0x2 2 1 [4 0] [0 4]] (REQUEST)
r 1.116759153 _5_ RTR  --- 0 AODV 48 [0 ffffffff 3 800] ------- [3:255 -1:255 29 0] [0x2 2 1 [4 0] [0 4]] (REQUEST)
r 1.130371276 _8_ RTR  --- 8 tcp 1540 [13a 8 0 800] ------- [0:0 4:0 30 8] [5 0] 1 0
f 1.130371276 _8_ RTR  --- 8 tcp 1540 [13a 8 0 800] ------- [0:0 4:0 29 4] [5 0] 1 0
r 1.144255949 _4_ AGT  --- 5 tcp 1540 [13a 4 8 800] ------- [0:0 4:0 29 4] [3 0] 2 0
s 1.144255949 _4_ AGT  --- 10 ack 40 [0 0 0 0] ------- [4:0 0:0 32 0] [3 0] 0 0
r 1.144255949 _4_ RTR  --- 10 ack 40 [0 0 0 0] ------- [4:0 0:0 32 0] [3 0] 0 0
s 1.144255949 _4_ RTR  --- 10 ack 40 [0 0 0 0] ------- [4:0 0:0 30 8] [3 0] 0 0
r 1.158280846 _4_ AGT  --- 6 tcp 1540 [13a 4 8 800] ------- [0:0 4:0 29 4] [4 0] 2 0
s 1.158280846 _4_ AGT  --- 11 ack 40 [0 0 0 0] ------- [4:0 0:0 32 0] [4 0] 0 0
r 1.158280846 _4_ RTR  --- 11 ack 40 [0 0 0 0] ------- [4:0 0:0 32 0] [4 0] 0 0
s 1.158280846 _4_ RTR  --- 11 ack 40 [0 0 0 0] ------- [4:0 0:0 30 8] [4 0] 0 0
r 1.160125519 _8_ RTR  --- 10 ack 40 [13a 8 4 800] ------- [4:0 0:0 30 8] [3 0] 1 0
f 1.160125519 _8_ RTR  --- 10 ack 40 [13a 8 4 800] ------- [4:0 0:0 29 0] [3 0] 1 0
r 1.162010416 _8_ RTR  --- 11 ack 40 [13a 8 4 800] ------- [4:0 0:0 30 8] [4 0] 1 0
f 1.162010416 _8_ RTR  --- 11 ack 40 [13a 8 4 800] ------- [4:0 0:0 29 0] [4 0] 1 0
r 1.176347413 _8_ RTR  --- 9 tcp 1540 [13a 8 0 800] ------- [0:0 4:0 30 8] [6 0] 1 0
f 1.176347413 _8_ RTR  --- 9 tcp 1540 [13a 8 0 800] ------- [0:0 4:0 29 4] [6 0] 1 0
r 1.190192085 _4_ AGT  --- 8 tcp 1540 [13a 4 8 800] ------- [0:0 4:0 29 4] [5 0] 2 0
s 1.190192085 _4_ AGT  --- 12 ack 40 [0 0 0 0] ------- [4:0 0:0 32 0] [5 0] 0 0
r 1.190192085 _4_ RTR  --- 12 ack 40 [0 0 0 0] ------- [4:0 0:0 32 0] [5 0] 0 0
s 1.190192085 _4_ RTR  --- 12 ack 40 [0 0 0 0] ------- [4:0 0:0 30 8] [5 0] 0 0
r 1.192298558 _0_ AGT  --- 10 ack 40 [13a 0 8 800] ------- [4:0 0:0 29 0] [3 0] 2 0
s 1.192298558 _0_ AGT  --- 13 tcp 1540 [0 0 0 0] ------- [0:0 4:0 32 0] [7 0] 0 0
r 1.192298558 _0_ RTR  --- 13 tcp 1540 [0 0 0 0] ------- [0:0 4:0 32 0] [7 0] 0 0
s 1.192298558 _0_ AGT  --- 14 tcp 1540 [0 0 0 0] ------- [0:0 4:0 32 0] [8 0] 0 0
r 1.192298558 _0_ RTR  --- 14 tcp 1540 [0 0 0 0] ------- [0:0 4:0 32 0] [8 0] 0 0
s 1.192298558 _0_ RTR  --- 13 tcp 1540 [0 0 0 0] ------- [0:0 4:0 30 8] [7 0] 0 0
s 1.192298558 _0_ RTR  --- 14 tcp 1540 [0 0 0 0] ------- [0:0 4:0 30 8] [8 0] 0 0
r 1.194305556 _0_ AGT  --- 11 ack 40 [13a 0 8 800] ------- [4:0 0:0 29 0] [4 0] 2 0
s 1.194305556 _0_ AGT  --- 15 tcp 1540 [0 0 0 0] ------- [0:0 4:0 32 0] [9 0] 0 0
r 1.194305556 _0_ RTR  --- 15 tcp 1540 [0 0 0 0] ------- [0:0 4:0 32 0] [9 0] 0 0
s 1.194305556 _0_ AGT  --- 16 tcp 1540 [0 0 0 0] ------- [0:0 4:0 32 0] [10 0] 0 0
r 1.194305556 _0_ RTR  --- 16 tcp 1540 [0 0 0 0] ------- [0:0 4:0 32 0] [10 0] 0 0
s 1.194305556 _0_ RTR  --- 15 tcp 1540 [0 0 0 0] ------- [0:0 4:0 30 8] [9 0] 0 0
s 1.194305556 _0_ RTR  --- 16 tcp 1540 [0 0 0 0] ------- [0:0 4:0 30 8] [10 0] 0 0
r 1.208271805 _8_ RTR  --- 13 tcp 1540 [13a 8 0 800] ------- [0:0 4:0 30 8] [7 0] 1 0
f 1.208271805 _8_ RTR  --- 13 tcp 1540 [13a 8 0 800] ------- [0:0 4:0 29 4] [7 0] 1 0
r 1.222236477 _4_ AGT  --- 9 tcp 1540 [13a 4 8 800] ------- [0:0 4:0 29 4] [6 0] 2 0
s 1.222236477 _4_ AGT  --- 17 ack 40 [0 0 0 0] ------- [4:0 0:0 32 0] [6 0] 0 0
r 1.222236477 _4_ RTR  --- 17 ack 40 [0 0 0 0] ------- [4:0 0:0 32 0] [6 0] 0 0
s 1.222236477 _4_ RTR  --- 17 ack 40 [0 0 0 0] ------- [4:0 0:0 30 8] [6 0] 0 0
r 1.236061374 _4_ AGT  --- 13 tcp 1540 [13a 4 8 800] ------- [0:0 4:0 29 4] [7 0] 2 0
s 1.236061374 _4_ AGT  --- 18 ack 40 [0 0 0 0] ------- [4:0 0:0 32 0] [7 0] 0 0
r 1.236061374 _4_ RTR  --- 18 ack 40 [0 0 0 0] ------- [4:0 0:0 32 0] [7 0] 0 0
s 1.236061374 _4_ RTR  --- 18 ack 40 [0 0 0 0] ------- [4:0 0:0 30 8] [7 0] 0 0
r 1.238026046 _8_ RTR  --- 12 ack 40 [13a 8 4 800] ------- [4:0 0:0 30 8] [5 0] 1 0
f 1.238026046 _8_ RTR  --- 12 ack 40 [13a 8 4 800] ------- [4:0 0:0 29 0] [5 0] 1 0
r 1.239952295 _0_ AGT  --- 12 ack 40 [13a 0 8 800] ------- [4:0 0:0 29 0] [5 0] 2 0
s 1.239952295 _0_ AGT  --- 19 tcp 1540 [0 0 0 0] ------- [0:0 4:0 32 0] [11 0] 0 0
r 1.239952295 _0_ RTR  --- 19 tcp 1540 [0 0 0 0] ------- [0:0 4:0 32 0] [11 0] 0 0
s 1.239952295 _0_ AGT  --- 20 tcp 1540 [0 0 0 0] ------- [0:0 4:0 32 0] [12 0] 0 0
r 1.239952295 _0_ RTR  --- 20 tcp 1540 [0 0 0 0] ------- [0:0 4:0 32 0] [12 0] 0 0
s 1.239952295 _0_ RTR  --- 19 tcp 1540 [0 0 0 0] ------- [0:0 4:0 30 8] [11 0] 0 0
s 1.239952295 _0_ RTR  --- 20 tcp 1540 [0 0 0 0] ------- [0:0 4:0 30 8] [12 0] 0 0
r 1.254078544 _8_ RTR  --- 14 tcp 1540 [13a 8 0 800] ------- [0:0 4:0 30 8] [8 0] 1 0
f 1.254078544 _8_ RTR  --- 14 tcp 1540 [13a 8 0 800] ------- [0:0 4:0 29 4] [8 0] 1 0
r 1.267985543 _8_ RTR  --- 15 tcp 1540 [13a 8 0 800] ------- [0:0 4:0 30 8] [9 0] 1 0
f 1.267985543 _8_ RTR  --- 15 tcp 1540 [13a 8 0 800] ------- [0:0 4:0 29 4] [9 0] 1 0
r 1.281950215 _4_ AGT  --- 14 tcp 1540 [13a 4 8 800] ------- [0:0 4:0 29 4] [8 0] 2 0
s 1.281950215 _4_ AGT  --- 21 ack 40 [0 0 0 0] ------- [4:0 0:0 32 0] [8 0] 0 0
r 1.281950215 _4_ RTR  --- 21 ack 40 [0 0 0 0] ------- [4:0 0:0 32 0] [8 0] 0 0
s 1.281950215 _4_ RTR  --- 21 ack 40 [0 0 0 0] ------- [4:0 0:0 30 8] [8 0] 0 0
r 1.295775111 _4_ AGT  --- 15 tcp 1540 [13a 4 8 800] ------- [0:0 4:0 29 4] [9 0] 2 0
s 1.295775111 _4_ AGT  --- 22 ack 40 [0 0 0 0] ------- [4:0 0:0 32 0] [9 0] 0 0
r 1.295775111 _4_ RTR  --- 22 ack 40 [0 0 0 0] ------- [4:0 0:0 32 0] [9 0] 0 0
s 1.295775111 _4_ RTR  --- 22 ack 40 [0 0 0 0] ------- [4:0 0:0 30 8] [9 0] 0 0
r 1.297739782 _8_ RTR  --- 17 ack 40 [13a 8 4 800] ------- [4:0 0:0 30 8] [6 0] 1 0
f 1.297739782 _8_ RTR  --- 17 ack 40 [13a 8 4 800] ------- [4:0 0:0 29 0] [6 0] 1 0
r 1.299686032 _0_ AGT  --- 17 ack 40 [13a 0 8 800] ------- [4:0 0:0 29 0] [6 0] 2 0
s 1.299686032 _0_ AGT  --- 23 tcp 1540 [0 0 0 0] ------- [0:0 4:0 32 0] [13 0] 0 0
r 1.299686032 _0_ RTR  --- 23 tcp 1540 [0 0 0 0] ------- [0:0 4:0 32 0] [13 0] 0 0
s 1.299686032 _0_ AGT  --- 24 tcp 1540 [0 0 0 0] ------- [0:0 4:0 32 0] [14 0] 0 0
r 1.299686032 _0_ RTR  --- 24 tcp 1540 [0 0 0 0] ------- [0:0 4:0 32 0] [14 0] 0 0
s 1.299686032 _0_ RTR  --- 23 tcp 1540 [0 0 0 0] ------- [0:0 4:0 30 8] [13 0] 0 0
s 1.299686032 _0_ RTR  --- 24 tcp 1540 [0 0 0 0] ------- [0:0 4:0 30 8] [14 0] 0 0
r 1.313612282 _8_ RTR  --- 16 tcp 1540 [13a 8 0 800] ------- [0:0 4:0 30 8] [10 0] 1 0
f 1.313612282 _8_ RTR  --- 16 tcp 1540 [13a 8 0 800] ------- [0:0 4:0 29 4] [10 0] 1 0
r 1.327459282 _8_ RTR  --- 19 tcp 1540 [13a 8 0 800] ------- [0:0 4:0 30 8] [11 0] 1 0
f 1.327459282 _8_ RTR  --- 19 tcp 1540 [13a 8 0 800] ------- [0:0 4:0 29 4] [11 0] 1 0
r 1.341443954 _4_ AGT  --- 16 tcp 1540 [13a 4 8 800] ------- [0:0 4:0 29 4] [10 0] 2 0
s 1.341443954 _4_ AGT  --- 25 ack 40 [0 0 0 0] ------- [4:0 0:0 32 0] [10 0] 0 0
r 1.341443954 _4_ RTR  --- 25 ack 40 [0 0 0 0] ------- [4:0 0:0 32 0] [10 0] 0 0
s 1.341443954 _4_ RTR  --- 25 ack 40 [0 0 0 0] ------- [4:0 0:0 30 8] [10 0] 0 0
r 1.343368625 _8_ RTR  --- 18 ack 40 [13a 8 4 800] ------- [4:0 0:0 30 8] [7 0] 1 0
f 1.343368625 _8_ RTR  --- 18 ack 40 [13a 8 4 800] ------- [4:0 0:0 29 0] [7 0] 1 0
r 1.345313520 _8_ RTR  --- 21 ack 40 [13a 8 4 800] ------- [4:0 0:0 30 8] [8 0] 1 0
f 1.345313520 _8_ RTR  --- 21 ack 40 [13a 8 4 800] ------- [4:0 0:0 29 0] [8 0] 1 0
r 1.359178192 _4_ AGT  --- 19 tcp 1540 [13a 4 8 800] ------- [0:0 4:0 29 4] [11 0] 2 0
s 1.359178192 _4_ AGT  --- 26 ack 40 [0 0 0 0] ------- [4:0 0:0 32 0] [11 0] 0 0
r 1.359178192 _4_ RTR  --- 26 ack 40 [0 0 0 0] ------- [4:0 0:0 32 0] [11 0] 0 0
s 1.359178192 _4_ RTR  --- 26 ack 40 [0 0 0 0] ------- [4:0 0:0 30 8] [11 0] 0 0
r 1.361044666 _0_ AGT  --- 18 ack 40 [13a 0 8 800] ------- [4:0 0:0 29 0] [7 0] 2 0
s 1.361044666 _0_ AGT  --- 27 tcp 1540 [0 0 0 0] ------- [0:0 4:0 32 0] [15 0] 0 0
r 1.361044666 _0_ RTR  --- 27 tcp 1540 [0 0 0 0] ------- [0:0 4:0 32 0] [15 0] 0 0
s 1.361044666 _0_ AGT  --- 28 tcp 1540 [0 0 0 0] ------- [0:0 4:0 32 0] [16 0] 0 0
r 1.361044666 _0_ RTR  --- 28 tcp 1540 [0 0 0 0] ------- [0:0 4:0 32 0] [16 0] 0 0
s 1.361044666 _0_ RTR  --- 27 tcp 1540 [0 0 0 0] ------- [0:0 4:0 30 8] [15 0] 0 0
s 1.361044666 _0_ RTR  --- 28 tcp 1540 [0 0 0 0] ------- [0:0 4:0 30 8] [16 0] 0 0
r 1.375130917 _8_ RTR  --- 20 tcp 1540 [13a 8 0 800] ------- [0:0 4:0 30 8] [12 0] 1 0
f 1.375130917 _8_ RTR  --- 20 tcp 1540 [13a 8 0 800] ------- [0:0 4:0 29 4] [12 0] 1 0
r 1.389077918 _8_ RTR  --- 23 tcp 1540 [13a 8 0 800] ------- [0:0 4:0 30 8] [13 0] 1 0
f 1.389077918 _8_ RTR  --- 23 tcp 1540 [13a 8 0 800] ------- [0:0 4:0 29 4] [13 0] 1 0
r 1.390984169 _0_ AGT  --- 21 ack 40 [13a 0 8 800] ------- [4:0 0:0 29 0] [8 0] 2 0
s 1.390984169 _0_ AGT  --- 29 tcp 1540 [0 0 0 0] ------- [0:0 4:0 32 0] [17 0] 0 0
r 1.390984169 _0_ RTR  --- 29 tcp 1540 [0 0 0 0] ------- [0:0 4:0 32 0] [17 0] 0 0
s 1.390984169 _0_ AGT  --- 30 tcp 1540 [0 0 0 0] ------- [0:0 4:0 32 0] [18 0] 0 0
r 1.390984169 _0_ RTR  --- 30 tcp 1540 [0 0 0 0] ------- [0:0 4:0 32 0] [18 0] 0 0
s 1.390984169 _0_ RTR  --- 29 tcp 1540 [0 0 0 0] ------- [0:0 4:0 30 8] [17 0] 0 0
s 1.390984169 _0_ RTR  --- 30 tcp 1540 [0 0 0 0] ------- [0:0 4:0 30 8] [18 0] 0 0
r 1.404909590 _4_ AGT  --- 20 tcp 1540 [13a 4 8 800] ------- [0:0 4:0 29 4] [12 0] 2 0
s 1.404909590 _4_ AGT  --- 31 ack 40 [0 0 0 0] ------- [4:0 0:0 32 0] [12 0] 0 0
r 1.404909590 _4_ RTR  --- 31 ack 40 [0 0 0 0] ------- [4:0 0:0 32 0] [12 0] 0 0
s 1.404909590 _4_ RTR  --- 31 ack 40 [0 0 0 0] ------- [4:0 0:0 30 8] [12 0] 0 0
r 1.418814485 _4_ AGT  --- 23 tcp 1540 [13a 4 8 800] ------- [0:0 4:0 29 4] [13 0] 2 0
s 1.418814485 _4_ AGT  --- 32 ack 40 [0 0 0 0] ------- [4:0 0:0 32 0] [13 0] 0 0
r 1.418814485 _4_ RTR  --- 32 ack 40 [0 0 0 0] ------- [4:0 0:0 32 0] [13 0] 0 0
s 1.418814485 _4_ RTR  --- 32 ack 40 [0 0 0 0] ------- [4:0 0:0 30 8] [13 0] 0 0
r 1.420719155 _8_ RTR  --- 22 ack 40 [13a 8 4 800] ------- [4:0 0:0 30 8] [9 0] 1 0
f 1.420719155 _8_ RTR  --- 22 ack 40 [13a 8 4 800] ------- [4:0 0:0 29 0] [9 0] 1 0
r 1.434616156 _8_ RTR  --- 24 tcp 1540 [13a 8 0 800] ------- [0:0 4:0 30 8] [14 0] 1 0
f 1.434616156 _8_ RTR  --- 24 tcp 1540 [13a 8 0 800] ------- [0:0 4:0 29 4] [14 0] 1 0
r 1.448503158 _8_ RTR  --- 27 tcp 1540 [13a 8 0 800] ------- [0:0 4:0 30 8] [15 0] 1 0
f 1.448503158 _8_ RTR  --- 27 tcp 1540 [13a 8 0 800] ------- [0:0 4:0 29 4] [15 0] 1 0
r 1.450409410 _0_ AGT  --- 22 ack 40 [13a 0 8 800] ------- [4:0 0:0 29 0] [9 0] 2 0
s 1.450409410 _0_ AGT  --- 33 tcp 1540 [0 0 0 0] ------- [0:0 4:0 32 0] [19 0] 0 0
r 1.450409410 _0_ RTR  --- 33 tcp 1540 [0 0 0 0] ------- [0:0 4:0 32 0] [19 0] 0 0
s 1.450409410 _0_ AGT  --- 34 tcp 1540 [0 0 0 0] ------- [0:0 4:0 32 0] [20 0] 0 0
r 1.450409410 _0_ RTR  --- 34 tcp 1540 [0 0 0 0] ------- [0:0 4:0 32 0] [20 0] 0 0
s 1.450409410 _0_ RTR  --- 33 tcp 1540 [0 0 0 0] ------- [0:0 4:0 30 8] [19 0] 0 0
s 1.450409410 _0_ RTR  --- 34 tcp 1540 [0 0 0 0] ------- [0:0 4:0 30 8] [20 0] 0 0
r 1.464495662 _8_ RTR  --- 28 tcp 1540 [13a 8 0 800] ------- [0:0 4:0 30 8] [16 0] 1 0
f 1.464495662 _8_ RTR  --- 28 tcp 1540 [13a 8 0 800] ------- [0:0 4:0 29 4] [16 0] 1 0
r 1.478442665 _8_ RTR  --- 29 tcp 1540 [13a 8 0 800] ------- [0:0 4:0 30 8] [17 0] 1 0
f 1.478442665 _8_ RTR  --- 29 tcp 1540 [13a 8 0 800] ------- [0:0 4:0 29 4] [17 0] 1 0
r 1.492329668 _8_ RTR  --- 30 tcp 1540 [13a 8 0 800] ------- [0:0 4:0 30 8] [18 0] 1 0
f 1.492329668 _8_ RTR  --- 30 tcp 1540 [13a 8 0 800] ------- [0:0 4:0 29 4] [18 0] 1 0
r 1.494264560 _8_ RTR  --- 25 ack 40 [13a 8 4 800] ------- [4:0 0:0 30 8] [10 0] 1 0
f 1.494264560 _8_ RTR  --- 25 ack 40 [13a 8 4 800] ------- [4:0 0:0 29 0] [10 0] 1 0
r 1.508149230 _4_ AGT  --- 24 tcp 1540 [13a 4 8 800] ------- [0:0 4:0 29 4] [14 0] 2 0
s 1.508149230 _4_ AGT  --- 35 ack 40 [0 0 0 0] ------- [4:0 0:0 32 0] [14 0] 0 0
r 1.508149230 _4_ RTR  --- 35 ack 40 [0 0 0 0] ------- [4:0 0:0 32 0] [14 0] 0 0
s 1.508149230 _4_ RTR  --- 35 ack 40 [0 0 0 0] ------- [4:0 0:0 30 8] [14 0] 0 0
r 1.510053901 _8_ RTR  --- 26 ack 40 [13a 8 4 800] ------- [4:0 0:0 30 8] [11 0] 1 0
f 1.510053901 _8_ RTR  --- 26 ack 40 [13a 8 4 800] ------- [4:0 0:0 29 0] [11 0] 1 0
r 1.512318794 _8_ RTR  --- 31 ack 40 [13a 8 4 800] ------- [4:0 0:0 30 8] [12 0] 1 0
f 1.512318794 _8_ RTR  --- 31 ack 40 [13a 8 4 800] ------- [4:0 0:0 29 0] [12 0] 1 0
r 1.526243464 _4_ AGT  --- 27 tcp 1540 [13a 4 8 800] ------- [0:0 4:0 29 4] [15 0] 2 0
s 1.526243464 _4_ AGT  --- 36 ack 40 [0 0 0 0] ------- [4:0 0:0 32 0] [15 0] 0 0
r 1.526243464 _4_ RTR  --- 36 ack 40 [0 0 0 0] ------- [4:0 0:0 32 0] [15 0] 0 0
s 1.526243464 _4_ RTR  --- 36 ack 40 [0 0 0 0] ------- [4:0 0:0 30 8] [15 0] 0 0
r 1.540368357 _4_ AGT  --- 28 tcp 1540 [13a 4 8 800] ------- [0:0 4:0 29 4] [16 0] 2 0
s 1.540368357 _4_ AGT  --- 37 ack 40 [0 0 0 0] ------- [4:0 0:0 32 0] [16 0] 0 0
r 1.540368357 _4_ RTR  --- 37 ack 40 [0 0 0 0] ------- [4:0 0:0 32 0] [16 0] 0 0
s 1.540368357 _4_ RTR  --- 37 ack 40 [0 0 0 0] ------- [4:0 0:0 30 8] [16 0] 0 0
r 1.542353027 _8_ RTR  --- 32 ack 40 [13a 8 4 800] ------- [4:0 0:0 30 8] [13 0] 1 0
f 1.542353027 _8_ RTR  --- 32 ack 40 [13a 8 4 800] ------- [4:0 0:0 29 0] [13 0] 1 0
r 1.556290030 _8_ RTR  --- 33 tcp 1540 [13a 8 0 800] ------- [0:0 4:0 30 8] [19 0] 1 0
f 1.556290030 _8_ RTR  --- 33 tcp 1540 [13a 8 0 800] ------- [0:0 4:0 29 4] [19 0] 1 0
r 1.570174700 _4_ AGT  --- 29 tcp 1540 [13a 4 8 800] ------- [0:0 4:0 29 4] [17 0] 2 0
s 1.570174700 _4_ AGT  --- 38 ack 40 [0 0 0 0] ------- [4:0 0:0 32 0] [17 0] 0 0
r 1.570174700 _4_ RTR  --- 38 ack 40 [0 0 0 0] ------- [4:0 0:0 32 0] [17 0] 0 0
s 1.570174700 _4_ RTR  --- 38 ack 40 [0 0 0 0] ------- [4:0 0:0 30 8] [17 0] 0 0
r 1.584039593 _4_ AGT  --- 30 tcp 1540 [13a 4 8 800] ------- [0:0 4:0 29 4] [18 0] 2 0
s 1.584039593 _4_ AGT  --- 39 ack 40 [0 0 0 0] ------- [4:0 0:0 32 0] [18 0] 0 0
r 1.584039593 _4_ RTR  --- 39 ack 40 [0 0 0 0] ------- [4:0 0:0 32 0] [18 0] 0 0
s 1.584039593 _4_ RTR  --- 39 ack 40 [0 0 0 0] ------- [4:0 0:0 30 8] [18 0] 0 0
r 1.586024262 _8_ RTR  --- 35 ack 40 [13a 8 4 800] ------- [4:0 0:0 30 8] [14 0] 1 0
f 1.586024262 _8_ RTR  --- 35 ack 40 [13a 8 4 800] ------- [4:0 0:0 29 0] [14 0] 1 0
r 1.588069155 _8_ RTR  --- 36 ack 40 [13a 8 4 800] ------- [4:0 0:0 30 8] [15 0] 1 0
f 1.588069155 _8_ RTR  --- 36 ack 40 [13a 8 4 800] ------- [4:0 0:0 29 0] [15 0] 1 0
r 1.602066159 _8_ RTR  --- 34 tcp 1540 [13a 8 0 800] ------- [0:0 4:0 30 8] [20 0] 1 0
f 1.602066159 _8_ RTR  --- 34 tcp 1540 [13a 8 0 800] ------- [0:0 4:0 29 4] [20 0] 1 0
r 1.603952413 _0_ AGT  --- 25 ack 40 [13a 0 8 800] ------- [4:0 0:0 29 0] [10 0] 2 0
s 1.603952413 _0_ AGT  --- 40 tcp 1540 [0 0 0 0] ------- [0:0 4:0 32 0] [21 0] 0 0
r 1.603952413 _0_ RTR  --- 40 tcp 1540 [0 0 0 0] ------- [0:0 4:0 32 0] [21 0] 0 0
s 1.603952413 _0_ AGT  --- 41 tcp 1540 [0 0 0 0] ------- [0:0 4:0 32 0] [22 0] 0 0
r 1.603952413 _0_ RTR  --- 41 tcp 1540 [0 0 0 0] ------- [0:0 4:0 32 0] [22 0] 0 0
s 1.603952413 _0_ RTR  --- 40 tcp 1540 [0 0 0 0] ------- [0:0 4:0 30 8] [21 0] 0 0
s 1.603952413 _0_ RTR  --- 41 tcp 1540 [0 0 0 0] ------- [0:0 4:0 30 8] [22 0] 0 0
r 1.617878666 _8_ RTR  --- 40 tcp 1540 [13a 8 0 800] ------- [0:0 4:0 30 8] [21 0] 1 0
f 1.617878666 _8_ RTR  --- 40 tcp 1540 [13a 8 0 800] ------- [0:0 4:0 29 4] [21 0] 1 0
r 1.619773558 _8_ RTR  --- 37 ack 40 [13a 8 4 800] ------- [4:0 0:0 30 8] [16 0] 1 0
f 1.619773558 _8_ RTR  --- 37 ack 40 [13a 8 4 800] ------- [4:0 0:0 29 0] [16 0] 1 0
r 1.621718450 _8_ RTR  --- 38 ack 40 [13a 8 4 800] ------- [4:0 0:0 30 8] [17 0] 1 0
f 1.621718450 _8_ RTR  --- 38 ack 40 [13a 8 4 800] ------- [4:0 0:0 29 0] [17 0] 1 0
r 1.623704704 _0_ AGT  --- 26 ack 40 [13a 0 8 800] ------- [4:0 0:0 29 0] [11 0] 2 0
s 1.623704704 _0_ AGT  --- 42 tcp 1540 [0 0 0 0] ------- [0:0 4:0 32 0] [23 0] 0 0
r 1.623704704 _0_ RTR  --- 42 tcp 1540 [0 0 0 0] ------- [0:0 4:0 32 0] [23 0] 0 0
s 1.623704704 _0_ AGT  --- 43 tcp 1540 [0 0 0 0] ------- [0:0 4:0 32 0] [24 0] 0 0
r 1.623704704 _0_ RTR  --- 43 tcp 1540 [0 0 0 0] ------- [0:0 4:0 32 0] [24 0] 0 0
s 1.623704704 _0_ RTR  --- 42 tcp 1540 [0 0 0 0] ------- [0:0 4:0 30 8] [23 0] 0 0
s 1.623704704 _0_ RTR  --- 43 tcp 1540 [0 0 0 0] ------- [0:0 4:0 30 8] [24 0] 0 0
r 1.637710958 _8_ RTR  --- 41 tcp 1540 [13a 8 0 800] ------- [0:0 4:0 30 8] [22 0] 1 0
f 1.637710958 _8_ RTR  --- 41 tcp 1540 [13a 8 0 800] ------- [0:0 4:0 29 4] [22 0] 1 0
r 1.651537964 _8_ RTR  --- 42 tcp 1540 [13a 8 0 800] ------- [0:0 4:0 30 8] [23 0] 1 0
f 1.651537964 _8_ RTR  --- 42 tcp 1540 [13a 8 0 800] ------- [0:0 4:0 29 4] [23 0] 1 0
r 1.653404218 _0_ AGT  --- 31 ack 40 [13a 0 8 800] ------- [4:0 0:0 29 0] [12 0] 2 0
s 1.653404218 _0_ AGT  --- 44 tcp 1540 [0 0 0 0] ------- [0:0 4:0 32 0] [25 0] 0 0
r 1.653404218 _0_ RTR  --- 44 tcp 1540 [0 0 0 0] ------- [0:0 4:0 32 0] [25 0] 0 0
s 1.653404218 _0_ AGT  --- 45 tcp 1540 [0 0 0 0] ------- [0:0 4:0 32 0] [26 0] 0 0
r 1.653404218 _0_ RTR  --- 45 tcp 1540 [0 0 0 0] ------- [0:0 4:0 32 0] [26 0] 0 0
s 1.653404218 _0_ RTR  --- 44 tcp 1540 [0 0 0 0] ------- [0:0 4:0 30 8] [25 0] 0 0
s 1.653404218 _0_ RTR  --- 45 tcp 1540 [0 0 0 0] ------- [0:0 4:0 30 8] [26 0] 0 0
r 1.667330473 _8_ RTR  --- 43 tcp 1540 [13a 8 0 800] ------- [0:0 4:0 30 8] [24 0] 1 0
f 1.667330473 _8_ RTR  --- 43 tcp 1540 [13a 8 0 800] ------- [0:0 4:0 29 4] [24 0] 1 0
r 1.669225364 _8_ RTR  --- 39 ack 40 [13a 8 4 800] ------- [4:0 0:0 30 8] [18 0] 1 0
f 1.669225364 _8_ RTR  --- 39 ack 40 [13a 8 4 800] ------- [4:0 0:0 29 0] [18 0] 1 0
r 1.671251618 _0_ AGT  --- 32 ack 40 [13a 0 8 800] ------- [4:0 0:0 29 0] [13 0] 2 0
s 1.671251618 _0_ AGT  --- 46 tcp 1540 [0 0 0 0] ------- [0:0 4:0 32 0] [27 0] 0 0
r 1.671251618 _0_ RTR  --- 46 tcp 1540 [0 0 0 0] ------- [0:0 4:0 32 0] [27 0] 0 0
s 1.671251618 _0_ AGT  --- 47 tcp 1540 [0 0 0 0] ------- [0:0 4:0 32 0] [28 0] 0 0
r 1.671251618 _0_ RTR  --- 47 tcp 1540 [0 0 0 0] ------- [0:0 4:0 32 0] [28 0] 0 0
s 1.671251618 _0_ RTR  --- 46 tcp 1540 [0 0 0 0] ------- [0:0 4:0 30 8] [27 0] 0 0
s 1.671251618 _0_ RTR  --- 47 tcp 1540 [0 0 0 0] ------- [0:0 4:0 30 8] [28 0] 0 0
r 1.685197873 _8_ RTR  --- 44 tcp 1540 [13a 8 0 800] ------- [0:0 4:0 30 8] [25 0] 1 0
f 1.685197873 _8_ RTR  --- 44 tcp 1540 [13a 8 0 800] ------- [0:0 4:0 29 4] [25 0] 1 0
r 1.699344880 _8_ RTR  --- 45 tcp 1540 [13a 8 0 800] ------- [0:0 4:0 30 8] [26 0] 1 0
f 1.699344880 _8_ RTR  --- 45 tcp 1540 [13a 8 0 800] ------- [0:0 4:0 29 4] [26 0] 1 0
r 1.713229549 _4_ AGT  --- 33 tcp 1540 [13a 4 8 800] ------- [0:0 4:0 29 4] [19 0] 2 0
s 1.713229549 _4_ AGT  --- 48 ack 40 [0 0 0 0] ------- [4:0 0:0 32 0] [19 0] 0 0
r 1.713229549 _4_ RTR  --- 48 ack 40 [0 0 0 0] ------- [4:0 0:0 32 0] [19 0] 0 0
s 1.713229549 _4_ RTR  --- 48 ack 40 [0 0 0 0] ------- [4:0 0:0 30 8] [19 0] 0 0
r 1.715074217 _8_ RTR  --- 48 ack 40 [13a 8 4 800] ------- [4:0 0:0 30 8] [19 0] 1 0
f 1.715074217 _8_ RTR  --- 48 ack 40 [13a 8 4 800] ------- [4:0 0:0 29 0] [19 0] 1 0
r 1.729051223 _8_ RTR  --- 46 tcp 1540 [13a 8 0 800] ------- [0:0 4:0 30 8] [27 0] 1 0
f 1.729051223 _8_ RTR  --- 46 tcp 1540 [13a 8 0 800] ------- [0:0 4:0 29 4] [27 0] 1 0
r 1.742878230 _8_ RTR  --- 47 tcp 1540 [13a 8 0 800] ------- [0:0 4:0 30 8] [28 0] 1 0
f 1.742878230 _8_ RTR  --- 47 tcp 1540 [13a 8 0 800] ------- [0:0 4:0 29 4] [28 0] 1 0
r 1.744824486 _0_ AGT  --- 35 ack 40 [13a 0 8 800] ------- [4:0 0:0 29 0] [14 0] 2 0
s 1.744824486 _0_ AGT  --- 49 tcp 1540 [0 0 0 0] ------- [0:0 4:0 32 0] [29 0] 0 0
r 1.744824486 _0_ RTR  --- 49 tcp 1540 [0 0 0 0] ------- [0:0 4:0 32 0] [29 0] 0 0
s 1.744824486 _0_ AGT  --- 50 tcp 1540 [0 0 0 0] ------- [0:0 4:0 32 0] [30 0] 0 0
r 1.744824486 _0_ RTR  --- 50 tcp 1540 [0 0 0 0] ------- [0:0 4:0 32 0] [30 0] 0 0
s 1.744824486 _0_ RTR  --- 49 tcp 1540 [0 0 0 0] ------- [0:0 4:0 30 8] [29 0] 0 0
s 1.744824486 _0_ RTR  --- 50 tcp 1540 [0 0 0 0] ------- [0:0 4:0 30 8] [30 0] 0 0
r 1.759170742 _8_ RTR  --- 49 tcp 1540 [13a 8 0 800] ------- [0:0 4:0 30 8] [29 0] 1 0
f 1.759170742 _8_ RTR  --- 49 tcp 1540 [13a 8 0 800] ------- [0:0 4:0 29 4] [29 0] 1 0
r 1.761076998 _0_ AGT  --- 36 ack 40 [13a 0 8 800] ------- [4:0 0:0 29 0] [15 0] 2 0
s 1.761076998 _0_ AGT  --- 51 tcp 1540 [0 0 0 0] ------- [0:0 4:0 32 0] [31 0] 0 0
r 1.761076998 _0_ RTR  --- 51 tcp 1540 [0 0 0 0] ------- [0:0 4:0 32 0] [31 0] 0 0
s 1.761076998 _0_ AGT  --- 52 tcp 1540 [0 0 0 0] ------- [0:0 4:0 32 0] [32 0] 0 0
r 1.761076998 _0_ RTR  --- 52 tcp 1540 [0 0 0 0] ------- [0:0 4:0 32 0] [32 0] 0 0
s 1.761076998 _0_ RTR  --- 51 tcp 1540 [0 0 0 0] ------- [0:0 4:0 30 8] [31 0] 0 0
s 1.761076998 _0_ RTR  --- 52 tcp 1540 [0 0 0 0] ------- [0:0 4:0 30 8] [32 0] 0 0
r 1.774922418 _4_ AGT  --- 34 tcp 1540 [13a 4 8 800] ------- [0:0 4:0 29 4] [20 0] 2 0
s 1.774922418 _4_ AGT  --- 53 ack 40 [0 0 0 0] ------- [4:0 0:0 32 0] [20 0] 0 0
r 1.774922418 _4_ RTR  --- 53 ack 40 [0 0 0 0] ------- [4:0 0:0 32 0] [20 0] 0 0
s 1.774922418 _4_ RTR  --- 53 ack 40 [0 0 0 0] ------- [4:0 0:0 30 8] [20 0] 0 0
r 1.776767086 _8_ RTR  --- 53 ack 40 [13a 8 4 800] ------- [4:0 0:0 30 8] [20 0] 1 0
f 1.776767086 _8_ RTR  --- 53 ack 40 [13a 8 4 800] ------- [4:0 0:0 29 0] [20 0] 1 0
r 1.790651755 _4_ AGT  --- 40 tcp 1540 [13a 4 8 800] ------- [0:0 4:0 29 4] [21 0] 2 0
s 1.790651755 _4_ AGT  --- 54 ack 40 [0 0 0 0] ------- [4:0 0:0 32 0] [21 0] 0 0
r 1.790651755 _4_ RTR  --- 54 ack 40 [0 0 0 0] ------- [4:0 0:0 32 0] [21 0] 0 0
s 1.790651755 _4_ RTR  --- 54 ack 40 [0 0 0 0] ------- [4:0 0:0 30 8] [21 0] 0 0
r 1.792498234 _0_ AGT  --- 37 ack 40 [13a 0 8 800] ------- [4:0 0:0 29 0] [16 0] 2 0
s 1.792498234 _0_ AGT  --- 55 tcp 1540 [0 0 0 0] ------- [0:0 4:0 32 0] [33 0] 0 0
r 1.792498234 _0_ RTR  --- 55 tcp 1540 [0 0 0 0] ------- [0:0 4:0 32 0] [33 0] 0 0
s 1.792498234 _0_ AGT  --- 56 tcp 1540 [0 0 0 0] ------- [0:0 4:0 32 0] [34 0] 0 0
r 1.792498234 _0_ RTR  --- 56 tcp 1540 [0 0 0 0] ------- [0:0 4:0 32 0] [34 0] 0 0
s 1.792498234 _0_ RTR  --- 55 tcp 1540 [0 0 0 0] ------- [0:0 4:0 30 8] [33 0] 0 0
s 1.792498234 _0_ RTR  --- 56 tcp 1540 [0 0 0 0] ------- [0:0 4:0 30 8] [34 0] 0 0
r 1.794345242 _0_ AGT  --- 38 ack 40 [13a 0 8 800] ------- [4:0 0:0 29 0] [17 0] 2 0
s 1.794345242 _0_ AGT  --- 57 tcp 1540 [0 0 0 0] ------- [0:0 4:0 32 0] [35 0] 0 0
r 1.794345242 _0_ RTR  --- 57 tcp 1540 [0 0 0 0] ------- [0:0 4:0 32 0] [35 0] 0 0
s 1.794345242 _0_ AGT  --- 58 tcp 1540 [0 0 0 0] ------- [0:0 4:0 32 0] [36 0] 0 0