r 1.061403159 _24_ RTR  --- 1 ack 40 [13a 18 4 800] ------- [4:0 0:0 30 24] [0 0] 1 0
f 1.061403159 _24_ RTR  --- 1 ack 40 [13a 18 4 800] ------- [4:0 0:0 29 3] [0 0] 1 0
r 1.063289586 _3_ RTR  --- 1 ack 40 [13a 3 18 800] ------- [4:0 0:0 29 3] [0 0] 2 0
f 1.063289586 _3_ RTR  --- 1 ack 40 [13a 3 18 800] ------- [4:0 0:0 28 11] [0 0] 2 0
r 1.065115570 _11_ RTR  --- 1 ack 40 [13a b 3 800] ------- [4:0 0:0 28 11] [0 0] 3 0
f 1.065115570 _11_ RTR  --- 1 ack 40 [13a b 3 800] ------- [4:0 0:0 27 0] [0 0] 3 0
r 1.067301705 _0_ AGT  --- 1 ack 40 [13a 0 b 800] ------- [4:0 0:0 27 0] [0 0] 4 0
s 1.067301705 _0_ AGT  --- 2 tcp 1540 [0 0 0 0] ------- [0:0 4:0 32 0] [1 0] 0 0
r 1.067301705 _0_ RTR  --- 2 tcp 1540 [0 0 0 0] ------- [0:0 4:0 32 0] [1 0] 0 0
s 1.067301705 _0_ AGT  --- 3 tcp 1540 [0 0 0 0] ------- [0:0 4:0 32 0] [2 0] 0 0
r 1.067301705 _0_ RTR  --- 3 tcp 1540 [0 0 0 0] ------- [0:0 4:0 32 0] [2 0] 0 0
s 1.067301705 _0_ RTR  --- 2 tcp 1540 [0 0 0 0] ------- [0:0 4:0 30 11] [1 0] 0 0
s 1.067301705 _0_ RTR  --- 3 tcp 1540 [0 0 0 0] ------- [0:0 4:0 30 11] [2 0] 0 0
r 1.081547841 _11_ RTR  --- 2 tcp 1540 [13a b 0 800] ------- [0:0 4:0 30 11] [1 0] 1 0
f 1.081547841 _11_ RTR  --- 2 tcp 1540 [13a b 0 800] ------- [0:0 4:0 29 3] [1 0] 1 0
r 1.095473825 _3_ RTR  --- 2 tcp 1540 [13a 3 b 800] ------- [0:0 4:0 29 3] [1 0] 2 0
f 1.095473825 _3_ RTR  --- 2 tcp 1540 [13a 3 b 800] ------- [0:0 4:0 28 24] [1 0] 2 0
r 1.109460252 _24_ RTR  --- 2 tcp 1540 [13a 18 3 800] ------- [0:0 4:0 28 24] [1 0] 3 0
f 1.109460252 _24_ RTR  --- 2 tcp 1540 [13a 18 3 800] ------- [0:0 4:0 27 4] [1 0] 3 0
r 1.123545651 _4_ AGT  --- 2 tcp 1540 [13a 4 18 800] ------- [0:0 4:0 27 4] [1 0] 4 0
s 1.123545651 _4_ AGT  --- 4 ack 40 [0 0 0 0] ------- [4:0 0:0 32 0] [1 0] 0 0
r 1.123545651 _4_ RTR  --- 4 ack 40 [0 0 0 0] ------- [4:0 0:0 32 0] [1 0] 0 0
s 1.123545651 _4_ RTR  --- 4 ack 40 [0 0 0 0] ------- [4:0 0:0 30 24] [1 0] 0 0
r 1.130271050 _24_ RTR  --- 4 ack 40 [13a 18 4 800] ------- [4:0 0:0 30 24] [1 0] 1 0
f 1.130271050 _24_ RTR  --- 4 ack 40 [13a 18 4 800] ------- [4:0 0:0 29 3] [1 0] 1 0
r 1.132441998 _3_ RTR  --- 4 ack 40 [13a 3 18 800] ------- [4:0 0:0 29 3] [1 0] 2 0
f 1.132441998 _3_ RTR  --- 4 ack 40 [13a 3 18 800] ------- [4:0 0:0 28 11] [1 0] 2 0
r 1.134647984 _11_ RTR  --- 4 ack 40 [13a b 3 800] ------- [4:0 0:0 28 11] [1 0] 3 0
f 1.134647984 _11_ RTR  --- 4 ack 40 [13a b 3 800] ------- [4:0 0:0 27 0] [1 0] 3 0
r 1.136854117 _0_ AGT  --- 4 ack 40 [13a 0 b 800] ------- [4:0 0:0 27 0] [1 0] 4 0
s 1.136854117 _0_ AGT  --- 5 tcp 1540 [0 0 0 0] ------- [0:0 4:0 32 0] [3 0] 0 0
r 1.136854117 _0_ RTR  --- 5 tcp 1540 [0 0 0 0] ------- [0:0 4:0 32 0] [3 0] 0 0
s 1.136854117 _0_ AGT  --- 6 tcp 1540 [0 0 0 0] ------- [0:0 4:0 32 0] [4 0] 0 0
r 1.136854117 _0_ RTR  --- 6 tcp 1540 [0 0 0 0] ------- [0:0 4:0 32 0] [4 0] 0 0
s 1.136854117 _0_ RTR  --- 5 tcp 1540 [0 0 0 0] ------- [0:0 4:0 30 11] [3 0] 0 0
s 1.136854117 _0_ RTR  --- 6 tcp 1540 [0 0 0 0] ------- [0:0 4:0 30 11] [4 0] 0 0
r 1.158080251 _11_ RTR  --- 3 tcp 1540 [13a b 0 800] ------- [0:0 4:0 30 11] [2 0] 1 0
f 1.158080251 _11_ RTR  --- 3 tcp 1540 [13a b 0 800] ------- [0:0 4:0 29 3] [2 0] 1 0
r 1.172086238 _3_ RTR  --- 3 tcp 1540 [13a 3 b 800] ------- [0:0 4:0 29 3] [2 0] 2 0
f 1.172086238 _3_ RTR  --- 3 tcp 1540 [13a 3 b 800] ------- [0:0 4:0 28 24] [2 0] 2 0
r 1.186092664 _24_ RTR  --- 3 tcp 1540 [13a 18 3 800] ------- [0:0 4:0 28 24] [2 0] 3 0
f 1.186092664 _24_ RTR  --- 3 tcp 1540 [13a 18 3 800] ------- [0:0 4:0 27 4] [2 0] 3 0
r 1.200158062 _4_ AGT  --- 3 tcp 1540 [13a 4 18 800] ------- [0:0 4:0 27 4] [2 0] 4 0
s 1.200158062 _4_ AGT  --- 7 ack 40 [0 0 0 0] ------- [4:0 0:0 32 0] [2 0] 0 0
r 1.200158062 _4_ RTR  --- 7 ack 40 [0 0 0 0] ------- [4:0 0:0 32 0] [2 0] 0 0
s 1.200158062 _4_ RTR  --- 7 ack 40 [0 0 0 0] ------- [4:0 0:0 30 24] [2 0] 0 0
r 1.216815453 _11_ RTR  --- 5 tcp 1540 [13a b 0 800] ------- [0:0 4:0 30 11] [3 0] 1 0
f 1.216815453 _11_ RTR  --- 5 tcp 1540 [13a b 0 800] ------- [0:0 4:0 29 3] [3 0] 1 0
r 1.230781443 _3_ RTR  --- 5 tcp 1540 [13a 3 b 800] ------- [0:0 4:0 29 3] [3 0] 2 0
f 1.230781443 _3_ RTR  --- 5 tcp 1540 [13a 3 b 800] ------- [0:0 4:0 28 24] [3 0] 2 0
r 1.245092595 _11_ RTR  --- 6 tcp 1540 [13a b 0 800] ------- [0:0 4:0 30 11] [4 0] 1 0
f 1.245092595 _11_ RTR  --- 6 tcp 1540 [13a b 0 800] ------- [0:0 4:0 29 3] [4 0] 1 0
r 1.258918586 _3_ RTR  --- 6 tcp 1540 [13a 3 b 800] ------- [0:0 4:0 29 3] [4 0] 2 0
f 1.258918586 _3_ RTR  --- 6 tcp 1540 [13a 3 b 800] ------- [0:0 4:0 28 24] [4 0] 2 0
r 1.272785011 _24_ RTR  --- 5 tcp 1540 [13a 18 3 800] ------- [0:0 4:0 28 24] [3 0] 3 0
f 1.272785011 _24_ RTR  --- 5 tcp 1540 [13a 18 3 800] ------- [0:0 4:0 27 4] [3 0] 3 0
r 1.286612246 _24_ RTR  --- 6 tcp 1540 [13a 18 3 800] ------- [0:0 4:0 28 24] [4 0] 3 0
f 1.286612246 _24_ RTR  --- 6 tcp 1540 [13a 18 3 800] ------- [0:0 4:0 27 4] [4 0] 3 0
r 1.300677642 _4_ AGT  --- 5 tcp 1540 [13a 4 18 800] ------- [0:0 4:0 27 4] [3 0] 4 0
s 1.300677642 _4_ AGT  --- 8 ack 40 [0 0 0 0] ------- [4:0 0:0 32 0] [3 0] 0 0
r 1.300677642 _4_ RTR  --- 8 ack 40 [0 0 0 0] ------- [4:0 0:0 32 0] [3 0] 0 0
s 1.300677642 _4_ RTR  --- 8 ack 40 [0 0 0 0] ------- [4:0 0:0 30 24] [3 0] 0 0
r 1.314863505 _4_ AGT  --- 6 tcp 1540 [13a 4 18 800] ------- [0:0 4:0 27 4] [4 0] 4 0
s 1.314863505 _4_ AGT  --- 9 ack 40 [0 0 0 0] ------- [4:0 0:0 32 0] [4 0] 0 0
r 1.314863505 _4_ RTR  --- 9 ack 40 [0 0 0 0] ------- [4:0 0:0 32 0] [4 0] 0 0
s 1.314863505 _4_ RTR  --- 9 ack 40 [0 0 0 0] ------- [4:0 0:0 30 24] [4 0] 0 0
r 1.322368901 _24_ RTR  --- 7 ack 40 [13a 18 4 800] ------- [4:0 0:0 30 24] [2 0] 1 0
f 1.322368901 _24_ RTR  --- 7 ack 40 [13a 18 4 800] ------- [4:0 0:0 29 3] [2 0] 1 0
r 1.324695326 _3_ RTR  --- 7 ack 40 [13a 3 18 800] ------- [4:0 0:0 29 3] [2 0] 2 0
f 1.324695326 _3_ RTR  --- 7 ack 40 [13a 3 18 800] ------- [4:0 0:0 28 11] [2 0] 2 0
r 1.326661319 _11_ RTR  --- 7 ack 40 [13a b 3 800] ------- [4:0 0:0 28 11] [2 0] 3 0
f 1.326661319 _11_ RTR  --- 7 ack 40 [13a b 3 800] ------- [4:0 0:0 27 0] [2 0] 3 0
r 1.328972232 _24_ RTR  --- 8 ack 40 [13a 18 4 800] ------- [4:0 0:0 30 24] [3 0] 1 0
f 1.328972232 _24_ RTR  --- 8 ack 40 [13a 18 4 800] ------- [4:0 0:0 29 3] [3 0] 1 0
r 1.331098657 _3_ RTR  --- 8 ack 40 [13a 3 18 800] ------- [4:0 0:0 29 3] [3 0] 2 0
f 1.331098657 _3_ RTR  --- 8 ack 40 [13a 3 18 800] ------- [4:0 0:0 28 11] [3 0] 2 0
r 1.333035082 _0_ AGT  --- 7 ack 40 [13a 0 b 800] ------- [4:0 0:0 27 0] [2 0] 4 0
s 1.333035082 _0_ AGT  --- 10 tcp 1540 [0 0 0 0] ------- [0:0 4:0 32 0] [5 0] 0 0
r 1.333035082 _0_ RTR  --- 10 tcp 1540 [0 0 0 0] ------- [0:0 4:0 32 0] [5 0] 0 0
s 1.333035082 _0_ AGT  --- 11 tcp 1540 [0 0 0 0] ------- [0:0 4:0 32 0] [6 0] 0 0
r 1.333035082 _0_ RTR  --- 11 tcp 1540 [0 0 0 0] ------- [0:0 4:0 32 0] [6 0] 0 0
s 1.333035082 _0_ RTR  --- 10 tcp 1540 [0 0 0 0] ------- [0:0 4:0 30 11] [5 0] 0 0
s 1.333035082 _0_ RTR  --- 11 tcp 1540 [0 0 0 0] ------- [0:0 4:0 30 11] [6 0] 0 0
r 1.336139155 _11_ RTR  --- 8 ack 40 [13a b 3 800] ------- [4:0 0:0 28 11] [3 0] 3 0
f 1.336139155 _11_ RTR  --- 8 ack 40 [13a b 3 800] ------- [4:0 0:0 27 0] [3 0] 3 0
r 1.350135638 _11_ RTR  --- 10 tcp 1540 [13a b 0 800] ------- [0:0 4:0 30 11] [5 0] 1 0
f 1.350135638 _11_ RTR  --- 10 tcp 1540 [13a b 0 800] ------- [0:0 4:0 29 3] [5 0] 1 0
r 1.352041766 _0_ AGT  --- 8 ack 40 [13a 0 b 800] ------- [4:0 0:0 27 0] [3 0] 4 0
s 1.352041766 _0_ AGT  --- 12 tcp 1540 [0 0 0 0] ------- [0:0 4:0 32 0] [7 0] 0 0
r 1.352041766 _0_ RTR  --- 12 tcp 1540 [0 0 0 0] ------- [0:0 4:0 32 0] [7 0] 0 0
s 1.352041766 _0_ AGT  --- 13 tcp 1540 [0 0 0 0] ------- [0:0 4:0 32 0] [8 0] 0 0
r 1.352041766 _0_ RTR  --- 13 tcp 1540 [0 0 0 0] ------- [0:0 4:0 32 0] [8 0] 0 0
s 1.352041766 _0_ RTR  --- 12 tcp 1540 [0 0 0 0] ------- [0:0 4:0 30 11] [7 0] 0 0
s 1.352041766 _0_ RTR  --- 13 tcp 1540 [0 0 0 0] ------- [0:0 4:0 30 11] [8 0] 0 0
r 1.365868469 _3_ RTR  --- 10 tcp 1540 [13a 3 b 800] ------- [0:0 4:0 29 3] [5 0] 2 0
f 1.365868469 _3_ RTR  --- 10 tcp 1540 [13a 3 b 800] ------- [0:0 4:0 28 24] [5 0] 2 0
r 1.379834894 _24_ RTR  --- 10 tcp 1540 [13a 18 3 800] ------- [0:0 4:0 28 24] [5 0] 3 0
f 1.379834894 _24_ RTR  --- 10 tcp 1540 [13a 18 3 800] ------- [0:0 4:0 27 4] [5 0] 3 0
r 1.393980290 _4_ AGT  --- 10 tcp 1540 [13a 4 18 800] ------- [0:0 4:0 27 4] [5 0] 4 0
s 1.393980290 _4_ AGT  --- 14 ack 40 [0 0 0 0] ------- [4:0 0:0 32 0] [5 0] 0 0
r 1.393980290 _4_ RTR  --- 14 ack 40 [0 0 0 0] ------- [4:0 0:0 32 0] [5 0] 0 0
s 1.393980290 _4_ RTR  --- 14 ack 40 [0 0 0 0] ------- [4:0 0:0 30 24] [5 0] 0 0
r 1.408397672 _11_ RTR  --- 11 tcp 1540 [13a b 0 800] ------- [0:0 4:0 30 11] [6 0] 1 0
f 1.408397672 _11_ RTR  --- 11 tcp 1540 [13a b 0 800] ------- [0:0 4:0 29 3] [6 0] 1 0
r 1.422423668 _3_ RTR  --- 11 tcp 1540 [13a 3 b 800] ------- [0:0 4:0 29 3] [6 0] 2 0
f 1.422423668 _3_ RTR  --- 11 tcp 1540 [13a 3 b 800] ------- [0:0 4:0 28 24] [6 0] 2 0
r 1.436650092 _24_ RTR  --- 11 tcp 1540 [13a 18 3 800] ------- [0:0 4:0 28 24] [6 0] 3 0
f 1.436650092 _24_ RTR  --- 11 tcp 1540 [13a 18 3 800] ------- [0:0 4:0 27 4] [6 0] 3 0
r 1.450935488 _4_ AGT  --- 11 tcp 1540 [13a 4 18 800] ------- [0:0 4:0 27 4] [6 0] 4 0
s 1.450935488 _4_ AGT  --- 15 ack 40 [0 0 0 0] ------- [4:0 0:0 32 0] [6 0] 0 0
r 1.450935488 _4_ RTR  --- 15 ack 40 [0 0 0 0] ------- [4:0 0:0 32 0] [6 0] 0 0
s 1.450935488 _4_ RTR  --- 15 ack 40 [0 0 0 0] ------- [4:0 0:0 30 24] [6 0] 0 0
D 1.457897966 _4_ RTR  CBK 9 ack 40 [13a 18 4 800] ------- [4:0 0:0 30 24] [4 0] 0 0
D 1.457897966 _4_ RTR  CBK 14 ack 40 [0 18 4 800] ------- [4:0 0:0 30 24] [5 0] 0 0
D 1.457897966 _4_ RTR  CBK 15 ack 40 [0 18 4 800] ------- [4:0 0:0 30 24] [6 0] 0 0
s 1.457897966 _4_ RTR  --- 0 AODV 32 [0 0 0 0] ------- [4:255 -1:255 1 0] [0x8 1 [0 0] 0.000000] (ERROR)
r 1.458798237 _5_ RTR  --- 0 AODV 32 [0 ffffffff 4 800] ------- [4:255 -1:255 1 0] [0x8 1 [0 0] 0.000000] (ERROR)
r 1.458798285 _2_ RTR  --- 0 AODV 32 [0 ffffffff 4 800] ------- [4:255 -1:255 1 0] [0x8 1 [0 0] 0.000000] (ERROR)
r 1.458798323 _14_ RTR  --- 0 AODV 32 [0 ffffffff 4 800] ------- [4:255 -1:255 1 0] [0x8 1 [0 0] 0.000000] (ERROR)
r 1.458798551 _13_ RTR  --- 0 AODV 32 [0 ffffffff 4 800] ------- [4:255 -1:255 1 0] [0x8 1 [0 0] 0.000000] (ERROR)
r 1.464832867 _11_ RTR  --- 12 tcp 1540 [13a b 0 800] ------- [0:0 4:0 30 11] [7 0] 1 0
f 1.464832867 _11_ RTR  --- 12 tcp 1540 [13a b 0 800] ------- [0:0 4:0 29 3] [7 0] 1 0
r 1.478999699 _11_ RTR  --- 13 tcp 1540 [13a b 0 800] ------- [0:0 4:0 30 11] [8 0] 1 0
f 1.478999699 _11_ RTR  --- 13 tcp 1540 [13a b 0 800] ------- [0:0 4:0 29 3] [8 0] 1 0
r 1.492945698 _3_ RTR  --- 12 tcp 1540 [13a 3 b 800] ------- [0:0 4:0 29 3] [7 0] 2 0
f 1.492945698 _3_ RTR  --- 12 tcp 1540 [13a 3 b 800] ------- [0:0 4:0 28 24] [7 0] 2 0
r 1.506872364 _3_ RTR  --- 13 tcp 1540 [13a 3 b 800] ------- [0:0 4:0 29 3] [8 0] 2 0
f 1.506872364 _3_ RTR  --- 13 tcp 1540 [13a 3 b 800] ------- [0:0 4:0 28 24] [8 0] 2 0
r 1.520958788 _24_ RTR  --- 12 tcp 1540 [13a 18 3 800] ------- [0:0 4:0 28 24] [7 0] 3 0
f 1.520958788 _24_ RTR  --- 12 tcp 1540 [13a 18 3 800] ------- [0:0 4:0 27 4] [7 0] 3 0
r 1.534826019 _24_ RTR  --- 13 tcp 1540 [13a 18 3 800] ------- [0:0 4:0 28 24] [8 0] 3 0
f 1.534826019 _24_ RTR  --- 13 tcp 1540 [13a 18 3 800] ------- [0:0 4:0 27 4] [8 0] 3 0
r 1.549131413 _4_ AGT  --- 12 tcp 1540 [13a 4 18 800] ------- [0:0 4:0 27 4] [7 0] 4 0
s 1.549131413 _4_ AGT  --- 16 ack 40 [0 0 0 0] ------- [4:0 0:0 32 0] [7 0] 0 0
r 1.549131413 _4_ RTR  --- 16 ack 40 [0 0 0 0] ------- [4:0 0:0 32 0] [7 0] 0 0
s 1.549131413 _4_ RTR  --- 0 AODV 48 [0 0 0 0] ------- [4:255 -1:255 6 0] [0x2 1 1 [0 5] [4 8]] (REQUEST)
r 1.563017271 _4_ AGT  --- 13 tcp 1540 [13a 4 18 800] ------- [0:0 4:0 27 4] [8 0] 4 0
s 1.563017271 _4_ AGT  --- 17 ack 40 [0 0 0 0] ------- [4:0 0:0 32 0] [8 0] 0 0
r 1.563017271 _4_ RTR  --- 17 ack 40 [0 0 0 0] ------- [4:0 0:0 32 0] [8 0] 0 0
r 1.564629543 _5_ RTR  --- 0 AODV 48 [0 ffffffff 4 800] ------- [4:255 -1:255 6 0] [0x2 1 1 [0 5] [4 8]] (REQUEST)
r 1.564629591 _2_ RTR  --- 0 AODV 48 [0 ffffffff 4 800] ------- [4:255 -1:255 6 0] [0x2 1 1 [0 5] [4 8]] (REQUEST)
r 1.564629629 _14_ RTR  --- 0 AODV 48 [0 ffffffff 4 800] ------- [4:255 -1:255 6 0] [0x2 1 1 [0 5] [4 8]] (REQUEST)
r 1.564629736 _24_ RTR  --- 0 AODV 48 [0 ffffffff 4 800] ------- [4:255 -1:255 6 0] [0x2 1 1 [0 5] [4 8]] (REQUEST)
r 1.564629859 _13_ RTR  --- 0 AODV 48 [0 ffffffff 4 800] ------- [4:255 -1:255 6 0] [0x2 1 1 [0 5] [4 8]] (REQUEST)
s 1.564828935 _2_ RTR  --- 0 AODV 48 [0 ffffffff 4 800] ------- [2:255 -1:255 5 0] [0x2 2 1 [0 5] [4 8]] (REQUEST)
r 1.565937176 _24_ RTR  --- 0 AODV 48 [0 ffffffff 2 800] ------- [2:255 -1:255 5 0] [0x2 2 1 [0 5] [4 8]] (REQUEST)
r 1.565937240 _5_ RTR  --- 0 AODV 48 [0 ffffffff 2 800] ------- [2:255 -1:255 5 0] [0x2 2 1 [0 5] [4 8]] (REQUEST)
r 1.565937255 _4_ RTR  --- 0 AODV 48 [0 ffffffff 2 800] ------- [2:255 -1:255 5 0] [0x2 2 1 [0 5] [4 8]] (REQUEST)
r 1.565937367 _13_ RTR  --- 0 AODV 48 [0 ffffffff 2 800] ------- [2:255 -1:255 5 0] [0x2 2 1 [0 5] [4 8]] (REQUEST)
r 1.565937527 _14_ RTR  --- 0 AODV 48 [0 ffffffff 2 800] ------- [2:255 -1:255 5 0] [0x2 2 1 [0 5] [4 8]] (REQUEST)
r 1.565937641 _12_ RTR  --- 0 AODV 48 [0 ffffffff 2 800] ------- [2:255 -1:255 5 0] [0x2 2 1 [0 5] [4 8]] (REQUEST)
r 1.565937647 _7_ RTR  --- 0 AODV 48 [0 ffffffff 2 800] ------- [2:255 -1:255 5 0] [0x2 2 1 [0 5] [4 8]] (REQUEST)
r 1.565937718 _1_ RTR  --- 0 AODV 48 [0 ffffffff 2 800] ------- [2:255 -1:255 5 0] [0x2 2 1 [0 5] [4 8]] (REQUEST)
s 1.567327098 _5_ RTR  --- 0 AODV 48 [0 ffffffff 4 800] ------- [5:255 -1:255 5 0] [0x2 2 1 [0 5] [4 8]] (REQUEST)
s 1.568575233 _7_ RTR  --- 0 AODV 48 [0 ffffffff 2 800] ------- [7:255 -1:255 4 0] [0x2 3 1 [0 5] [4 8]] (REQUEST)
r 1.568755370 _4_ RTR  --- 0 AODV 48 [0 ffffffff 5 800] ------- [5:255 -1:255 5 0] [0x2 2 1 [0 5] [4 8]] (REQUEST)
r 1.568755375 _24_ RTR  --- 0 AODV 48 [0 ffffffff 5 800] ------- [5:255 -1:255 5 0] [0x2 2 1 [0 5] [4 8]] (REQUEST)
r 1.568755404 _2_ RTR  --- 0 AODV 48 [0 ffffffff 5 800] ------- [5:255 -1:255 5 0] [0x2 2 1 [0 5] [4 8]] (REQUEST)
r 1.568755422 _14_ RTR  --- 0 AODV 48 [0 ffffffff 5 800] ------- [5:255 -1:255 5 0] [0x2 2 1 [0 5] [4 8]] (REQUEST)
r 1.568755795 _7_ RTR  --- 0 AODV 48 [0 ffffffff 5 800] ------- [5:255 -1:255 5 0] [0x2 2 1 [0 5] [4 8]] (REQUEST)
r 1.568755817 _13_ RTR  --- 0 AODV 48 [0 ffffffff 5 800] ------- [5:255 -1:255 5 0] [0x2 2 1 [0 5] [4 8]] (REQUEST)
s 1.568948546 _24_ RTR  --- 0 AODV 48 [0 ffffffff 4 800] ------- [24:255 -1:255 5 0] [0x2 2 1 [0 5] [4 8]] (REQUEST)
s 1.569504289 _13_ RTR  --- 0 AODV 48 [0 ffffffff 4 800] ------- [13:255 -1:255 5 0] [0x2 2 1 [0 5] [4 8]] (REQUEST)
r 1.569896788 _2_ RTR  --- 0 AODV 48 [0 ffffffff 18 800] ------- [24:255 -1:255 5 0] [0x2 2 1 [0 5] [4 8]] (REQUEST)
r 1.569896823 _5_ RTR  --- 0 AODV 48 [0 ffffffff 18 800] ------- [24:255 -1:255 5 0] [0x2 2 1 [0 5] [4 8]] (REQUEST)
r 1.569897011 _4_ RTR  --- 0 AODV 48 [0 ffffffff 18 800] ------- [24:255 -1:255 5 0] [0x2 2 1 [0 5] [4 8]] (REQUEST)
r 1.569897030 _7_ RTR  --- 0 AODV 48 [0 ffffffff 18 800] ------- [24:255 -1:255 5 0] [0x2 2 1 [0 5] [4 8]] (REQUEST)
r 1.569897146 _14_ RTR  --- 0 AODV 48 [0 ffffffff 18 800] ------- [24:255 -1:255 5 0] [0x2 2 1 [0 5] [4 8]] (REQUEST)
r 1.569897196 _13_ RTR  --- 0 AODV 48 [0 ffffffff 18 800] ------- [24:255 -1:255 5 0] [0x2 2 1 [0 5] [4 8]] (REQUEST)
r 1.569897352 _12_ RTR  --- 0 AODV 48 [0 ffffffff 18 800] ------- [24:255 -1:255 5 0] [0x2 2 1 [0 5] [4 8]] (REQUEST)
r 1.569897354 _3_ RTR  --- 0 AODV 48 [0 ffffffff 18 800] ------- [24:255 -1:255 5 0] [0x2 2 1 [0 5] [4 8]] (REQUEST)
s 1.570629119 _1_ RTR  --- 0 AODV 48 [0 ffffffff 2 800] ------- [1:255 -1:255 4 0] [0x2 3 1 [0 5] [4 8]] (REQUEST)
r 1.571015386 _3_ RTR  --- 0 AODV 48 [0 ffffffff 7 800] ------- [7:255 -1:255 4 0] [0x2 3 1 [0 5] [4 8]] (REQUEST)
r 1.571015513 _24_ RTR  --- 0 AODV 48 [0 ffffffff 7 800] ------- [7:255 -1:255 4 0] [0x2 3 1 [0 5] [4 8]] (REQUEST)
r 1.571015625 _22_ RTR  --- 0 AODV 48 [0 ffffffff 7 800] ------- [7:255 -1:255 4 0] [0x2 3 1 [0 5] [4 8]] (REQUEST)
r 1.571015727 _5_ RTR  --- 0 AODV 48 [0 ffffffff 7 800] ------- [7:255 -1:255 4 0] [0x2 3 1 [0 5] [4 8]] (REQUEST)
r 1.571015742 _2_ RTR  --- 0 AODV 48 [0 ffffffff 7 800] ------- [7:255 -1:255 4 0] [0x2 3 1 [0 5] [4 8]] (REQUEST)
s 1.571671270 _14_ RTR  --- 0 AODV 48 [0 ffffffff 4 800] ------- [14:255 -1:255 5 0] [0x2 2 1 [0 5] [4 8]] (REQUEST)
r 1.572478440 _1_ RTR  --- 0 AODV 48 [0 ffffffff d 800] ------- [13:255 -1:255 5 0] [0x2 2 1 [0 5] [4 8]] (REQUEST)
r 1.572478515 _2_ RTR  --- 0 AODV 48 [0 ffffffff d 800] ------- [13:255 -1:255 5 0] [0x2 2 1 [0 5] [4 8]] (REQUEST)
r 1.572478565 _12_ RTR  --- 0 AODV 48 [0 ffffffff d 800] ------- [13:255 -1:255 5 0] [0x2 2 1 [0 5] [4 8]] (REQUEST)
r 1.572478671 _4_ RTR  --- 0 AODV 48 [0 ffffffff d 800] ------- [13:255 -1:255 5 0] [0x2 2 1 [0 5] [4 8]] (REQUEST)
r 1.572478732 _24_ RTR  --- 0 AODV 48 [0 ffffffff d 800] ------- [13:255 -1:255 5 0] [0x2 2 1 [0 5] [4 8]] (REQUEST)
r 1.572478801 _5_ RTR  --- 0 AODV 48 [0 ffffffff d 800] ------- [13:255 -1:255 5 0] [0x2 2 1 [0 5] [4 8]] (REQUEST)
s 1.572836714 _12_ RTR  --- 0 AODV 48 [0 ffffffff 2 800] ------- [12:255 -1:255 4 0] [0x2 3 1 [0 5] [4 8]] (REQUEST)
r 1.573576797 _13_ RTR  --- 0 AODV 48 [0 ffffffff 1 800] ------- [1:255 -1:255 4 0] [0x2 3 1 [0 5] [4 8]] (REQUEST)
r 1.573576897 _12_ RTR  --- 0 AODV 48 [0 ffffffff 1 800] ------- [1:255 -1:255 4 0] [0x2 3 1 [0 5] [4 8]] (REQUEST)
r 1.573577182 _23_ RTR  --- 0 AODV 48 [0 ffffffff 1 800] ------- [1:255 -1:255 4 0] [0x2 3 1 [0 5] [4 8]] (REQUEST)
r 1.573577204 _17_ RTR  --- 0 AODV 48 [0 ffffffff 1 800] ------- [1:255 -1:255 4 0] [0x2 3 1 [0 5] [4 8]] (REQUEST)
r 1.573577224 _2_ RTR  --- 0 AODV 48 [0 ffffffff 1 800] ------- [1:255 -1:255 4 0] [0x2 3 1 [0 5] [4 8]] (REQUEST)
s 1.573779723 _22_ RTR  --- 0 AODV 48 [0 ffffffff 7 800] ------- [22:255 -1:255 3 0] [0x2 4 1 [0 5] [4 8]] (REQUEST)
r 1.574860147 _11_ RTR  --- 0 AODV 48 [0 ffffffff 16 800] ------- [22:255 -1:255 3 0] [0x2 4 1 [0 5] [4 8]] (REQUEST)
r 1.574860153 _3_ RTR  --- 0 AODV 48 [0 ffffffff 16 800] ------- [22:255 -1:255 3 0] [0x2 4 1 [0 5] [4 8]] (REQUEST)
r 1.574860411 _7_ RTR  --- 0 AODV 48 [0 ffffffff 16 800] ------- [22:255 -1:255 3 0] [0x2 4 1 [0 5] [4 8]] (REQUEST)
r 1.574860605 _0_ RTR  --- 0 AODV 48 [0 ffffffff 16 800] ------- [22:255 -1:255 3 0] [0x2 4 1 [0 5] [4 8]] (REQUEST)
s 1.574860605 _0_ RTR  --- 0 AODV 44 [0 0 0 0] ------- [0:255 4:255 30 22] [0x4 1 [0 6] 10.000000] (REPLY)
r 1.574860636 _16_ RTR  --- 0 AODV 48 [0 ffffffff 16 800] ------- [22:255 -1:255 3 0] [0x2 4 1 [0 5] [4 8]] (REQUEST)
s 1.574948407 _3_ RTR  --- 0 AODV 48 [0 ffffffff 18 800] ------- [3:255 -1:255 4 0] [0x2 3 1 [0 5] [4 8]] (REQUEST)
s 1.575074176 _23_ RTR  --- 0 AODV 48 [0 ffffffff 1 800] ------- [23:255 -1:255 3 0] [0x2 4 1 [0 5] [4 8]] (REQUEST)
s 1.575413714 _11_ RTR  --- 0 AODV 48 [0 ffffffff 16 800] ------- [11:255 -1:255 2 0] [0x2 5 1 [0 5] [4 8]] (REQUEST)
r 1.576116745 _22_ RTR  --- 0 AODV 48 [0 ffffffff 3 800] ------- [3:255 -1:255 4 0] [0x2 3 1 [0 5] [4 8]] (REQUEST)
r 1.576116763 _7_ RTR  --- 0 AODV 48 [0 ffffffff 3 800] ------- [3:255 -1:255 4 0] [0x2 3 1 [0 5] [4 8]] (REQUEST)
r 1.576117075 _11_ RTR  --- 0 AODV 48 [0 ffffffff 3 800] ------- [3:255 -1:255 4 0] [0x2 3 1 [0 5] [4 8]] (REQUEST)
r 1.576117215 _24_ RTR  --- 0 AODV 48 [0 ffffffff 3 800] ------- [3:255 -1:255 4 0] [0x2 3 1 [0 5] [4 8]] (REQUEST)
r 1.577235406 _22_ RTR  --- 0 AODV 48 [0 ffffffff b 800] ------- [11:255 -1:255 2 0] [0x2 5 1 [0 5] [4 8]] (REQUEST)
r 1.577235649 _16_ RTR  --- 0 AODV 48 [0 ffffffff b 800] ------- [11:255 -1:255 2 0] [0x2 5 1 [0 5] [4 8]] (REQUEST)
r 1.577235742 _3_ RTR  --- 0 AODV 48 [0 ffffffff b 800] ------- [11:255 -1:255 2 0] [0x2 5 1 [0 5] [4 8]] (REQUEST)
r 1.577235782 _0_ RTR  --- 0 AODV 48 [0 ffffffff b 800] ------- [11:255 -1:255 2 0] [0x2 5 1 [0 5] [4 8]] (REQUEST)
s 1.578024619 _17_ RTR  --- 0 AODV 48 [0 ffffffff 1 800] ------- [17:255 -1:255 3 0] [0x2 4 1 [0 5] [4 8]] (REQUEST)
r 1.578999102 _5_ RTR  --- 0 AODV 48 [0 ffffffff e 800] ------- [14:255 -1:255 5 0] [0x2 2 1 [0 5] [4 8]] (REQUEST)
r 1.578999136 _4_ RTR  --- 0 AODV 48 [0 ffffffff e 800] ------- [14:255 -1:255 5 0] [0x2 2 1 [0 5] [4 8]] (REQUEST)
r 1.578999371 _2_ RTR  --- 0 AODV 48 [0 ffffffff e 800] ------- [14:255 -1:255 5 0] [0x2 2 1 [0 5] [4 8]] (REQUEST)
r 1.578999526 _9_ RTR  --- 0 AODV 48 [0 ffffffff e 800] ------- [14:255 -1:255 5 0] [0x2 2 1 [0 5] [4 8]] (REQUEST)
r 1.579533232 _15_ RTR  --- 0 AODV 48 [0 ffffffff 11 800] ------- [17:255 -1:255 3 0] [0x2 4 1 [0 5] [4 8]] (REQUEST)
s 1.580024555 _16_ RTR  --- 0 AODV 48 [0 ffffffff 16 800] ------- [16:255 -1:255 2 0] [0x2 5 1 [0 5] [4 8]] (REQUEST)
r 1.580895985 _16_ RTR  --- 0 AODV 48 [0 ffffffff c 800] ------- [12:255 -1:255 4 0] [0x2 3 1 [0 5] [4 8]] (REQUEST)
r 1.580895987 _1_ RTR  --- 0 AODV 48 [0 ffffffff c 800] ------- [12:255 -1:255 4 0] [0x2 3 1 [0 5] [4 8]] (REQUEST)
r 1.580896012 _13_ RTR  --- 0 AODV 48 [0 ffffffff c 800] ------- [12:255 -1:255 4 0] [0x2 3 1 [0 5] [4 8]] (REQUEST)
r 1.580896236 _2_ RTR  --- 0 AODV 48 [0 ffffffff c 800] ------- [12:255 -1:255 4 0] [0x2 3 1 [0 5] [4 8]] (REQUEST)
r 1.580896335 _24_ RTR  --- 0 AODV 48 [0 ffffffff c 800] ------- [12:255 -1:255 4 0] [0x2 3 1 [0 5] [4 8]] (REQUEST)
r 1.584935197 _22_ RTR  --- 0 AODV 44 [13a 16 0 800] ------- [0:255 4:255 30 22] [0x4 1 [0 6] 10.000000] (REPLY)
f 1.584935197 _22_ RTR  --- 0 AODV 44 [13a 16 0 800] ------- [0:255 4:255 29 7] [0x4 2 [0 6] 10.000000] (REPLY)
r 1.586258070 _12_ RTR  --- 0 AODV 48 [0 ffffffff 10 800] ------- [16:255 -1:255 2 0] [0x2 5 1 [0 5] [4 8]] (REQUEST)
r 1.586258188 _11_ RTR  --- 0 AODV 48 [0 ffffffff 10 800] ------- [16:255 -1:255 2 0] [0x2 5 1 [0 5] [4 8]] (REQUEST)
r 1.586258322 _8_ RTR  --- 0 AODV 48 [0 ffffffff 10 800] ------- [16:255 -1:255 2 0] [0x2 5 1 [0 5] [4 8]] (REQUEST)
r 1.586258359 _15_ RTR  --- 0 AODV 48 [0 ffffffff 10 800] ------- [16:255 -1:255 2 0] [0x2 5 1 [0 5] [4 8]] (REQUEST)
r 1.586258435 _22_ RTR  --- 0 AODV 48 [0 ffffffff 10 800] ------- [16:255 -1:255 2 0] [0x2 5 1 [0 5] [4 8]] (REQUEST)
s 1.587558549 _9_ RTR  --- 0 AODV 48 [0 ffffffff e 800] ------- [9:255 -1:255 4 0] [0x2 3 1 [0 5] [4 8]] (REQUEST)
s 1.588771194 _15_ RTR  --- 0 AODV 48 [0 ffffffff 11 800] ------- [15:255 -1:255 2 0] [0x2 5 1 [0 5] [4 8]] (REQUEST)
r 1.589719807 _17_ RTR  --- 0 AODV 48 [0 ffffffff f 800] ------- [15:255 -1:255 2 0] [0x2 5 1 [0 5] [4 8]] (REQUEST)
r 1.590461264 _14_ RTR  --- 0 AODV 48 [0 ffffffff 9 800] ------- [9:255 -1:255 4 0] [0x2 3 1 [0 5] [4 8]] (REQUEST)
s 1.591288088 _8_ RTR  --- 0 AODV 48 [0 ffffffff 10 800] ------- [8:255 -1:255 1 0] [0x2 6 1 [0 5] [4 8]] (REQUEST)
r 1.592416470 _15_ RTR  --- 0 AODV 48 [0 ffffffff 8 800] ------- [8:255 -1:255 1 0] [0x2 6 1 [0 5] [4 8]] (REQUEST)
r 1.592416795 _16_ RTR  --- 0 AODV 48 [0 ffffffff 8 800] ------- [8:255 -1:255 1 0] [0x2 6 1 [0 5] [4 8]] (REQUEST)
r 1.592416888 _19_ RTR  --- 0 AODV 48 [0 ffffffff 8 800] ------- [8:255 -1:255 1 0] [0x2 6 1 [0 5] [4 8]] (REQUEST)
D 1.592416888 _19_ RTR  TTL 0 AODV 48 [0 ffffffff 8 800] ------- [19:255 -1:255 0 0] [0x2 7 1 [0 5] [4 8]] (REQUEST)
r 1.594485244 _7_ RTR  --- 0 AODV 44 [13a 7 16 800] ------- [0:255 4:255 29 7] [0x4 2 [0 6] 10.000000] (REPLY)
f 1.594485244 _7_ RTR  --- 0 AODV 44 [13a 7 16 800] ------- [0:255 4:255 28 2] [0x4 3 [0 6] 10.000000] (REPLY)
r 1.599317225 _2_ RTR  --- 0 AODV 44 [13a 2 7 800] ------- [0:255 4:255 28 2] [0x4 3 [0 6] 10.000000] (REPLY)
f 1.599317225 _2_ RTR  --- 0 AODV 44 [13a 2 7 800] ------- [0:255 4:255 27 4] [0x4 4 [0 6] 10.000000] (REPLY)
r 1.601334187 _4_ RTR  --- 0 AODV 44 [13a 4 2 800] ------- [0:255 4:255 27 4] [0x4 4 [0 6] 10.000000] (REPLY)
s 1.601334187 _4_ RTR  --- 16 ack 40 [0 0 0 0] ------- [4:0 0:0 30 2] [7 0] 0 0
r 1.605926430 _2_ RTR  --- 16 ack 40 [13a 2 4 800] ------- [4:0 0:0 30 2] [7 0] 1 0
f 1.605926430 _2_ RTR  --- 16 ack 40 [13a 2 4 800] ------- [4:0 0:0 29 7] [7 0] 1 0
r 1.608152565 _7_ RTR  --- 16 ack 40 [13a 7 2 800] ------- [4:0 0:0 29 7] [7 0] 2 0
f 1.608152565 _7_ RTR  --- 16 ack 40 [13a 7 2 800] ------- [4:0 0:0 28 22] [7 0] 2 0
r 1.610358351 _22_ RTR  --- 16 ack 40 [13a 16 7 800] ------- [4:0 0:0 28 22] [7 0] 3 0
f 1.610358351 _22_ RTR  --- 16 ack 40 [13a 16 7 800] ------- [4:0 0:0 27 0] [7 0] 3 0
s 1.611334187 _4_ RTR  --- 17 ack 40 [0 0 0 0] ------- [4:0 0:0 30 2] [8 0] 0 0
r 1.612604717 _0_ AGT  --- 16 ack 40 [13a 0 16 800] ------- [4:0 0:0 27 0] [7 0] 4 0
s 1.612604717 _0_ AGT  --- 18 tcp 1540 [0 0 0 0] ------- [0:0 4:0 32 0] [9 0] 0 0
r 1.612604717 _0_ RTR  --- 18 tcp 1540 [0 0 0 0] ------- [0:0 4:0 32 0] [9 0] 0 0
s 1.612604717 _0_ AGT  --- 19 tcp 1540 [0 0 0 0] ------- [0:0 4:0 32 0] [10 0] 0 0
r 1.612604717 _0_ RTR  --- 19 tcp 1540 [0 0 0 0] ------- [0:0 4:0 32 0] [10 0] 0 0
s 1.612604717 _0_ AGT  --- 20 tcp 1540 [0 0 0 0] ------- [0:0 4:0 32 0] [11 0] 0 0
r 1.612604717 _0_ RTR  --- 20 tcp 1540 [0 0 0 0] ------- [0:0 4:0 32 0] [11 0] 0 0
s 1.612604717 _0_ AGT  --- 21 tcp 1540 [0 0 0 0] ------- [0:0 4:0 32 0] [12 0] 0 0
r 1.612604717 _0_ RTR  --- 21 tcp 1540 [0 0 0 0] ------- [0:0 4:0 32 0] [12 0] 0 0
s 1.612604717 _0_ AGT  --- 22 tcp 1540 [0 0 0 0] ------- [0:0 4:0 32 0] [13 0] 0 0
r 1.612604717 _0_ RTR  --- 22 tcp 1540 [0 0 0 0] ------- [0:0 4:0 32 0] [13 0] 0 0
s 1.612604717 _0_ RTR  --- 18 tcp 1540 [0 0 0 0] ------- [0:0 4:0 30 22] [9 0] 0 0
s 1.612604717 _0_ RTR  --- 19 tcp 1540 [0 0 0 0] ------- [0:0 4:0 30 22] [10 0] 0 0
s 1.612604717 _0_ RTR  --- 20 tcp 1540 [0 0 0 0] ------- [0:0 4:0 30 22] [11 0] 0 0
s 1.612604717 _0_ RTR  --- 21 tcp 1540 [0 0 0 0] ------- [0:0 4:0 30 22] [12 0] 0 0
s 1.612604717 _0_ RTR  --- 22 tcp 1540 [0 0 0 0] ------- [0:0 4:0 30 22] [13 0] 0 0
r 1.614740267 _2_ RTR  --- 17 ack 40 [13a 2 4 800] ------- [4:0 0:0 30 2] [8 0] 1 0
f 1.614740267 _2_ RTR  --- 17 ack 40 [13a 2 4 800] ------- [4:0 0:0 29 7] [8 0] 1 0
r 1.616906401 _7_ RTR  --- 17 ack 40 [13a 7 2 800] ------- [4:0 0:0 29 7] [8 0] 2 0
f 1.616906401 _7_ RTR  --- 17 ack 40 [13a 7 2 800] ------- [4:0 0:0 28 22] [8 0] 2 0
r 1.619092187 _22_ RTR  --- 17 ack 40 [13a 16 7 800] ------- [4:0 0:0 28 22] [8 0] 3 0
f 1.619092187 _22_ RTR  --- 17 ack 40 [13a 16 7 800] ------- [4:0 0:0 27 0] [8 0] 3 0
r 1.621418552 _0_ AGT  --- 17 ack 40 [13a 0 16 800] ------- [4:0 0:0 27 0] [8 0] 4 0
s 1.621418552 _0_ AGT  --- 23 tcp 1540 [0 0 0 0] ------- [0:0 4:0 32 0] [14 0] 0 0
r 1.621418552 _0_ RTR  --- 23 tcp 1540 [0 0 0 0] ------- [0:0 4:0 32 0] [14 0] 0 0
s 1.621418552 _0_ AGT  --- 24 tcp 1540 [0 0 0 0] ------- [0:0 4:0 32 0] [15 0] 0 0
r 1.621418552 _0_ RTR  --- 24 tcp 1540 [0 0 0 0] ------- [0:0 4:0 32 0] [15 0] 0 0
s 1.621418552 _0_ RTR  --- 23 tcp 1540 [0 0 0 0] ------- [0:0 4:0 30 22] [14 0] 0 0
s 1.621418552 _0_ RTR  --- 24 tcp 1540 [0 0 0 0] ------- [0:0 4:0 30 22] [15 0] 0 0
r 1.636344917 _22_ RTR  --- 18 tcp 1540 [13a 16 0 800] ------- [0:0 4:0 30 22] [9 0] 1 0
f 1.636344917 _22_ RTR  --- 18 tcp 1540 [13a 16 0 800] ------- [0:0 4:0 29 7] [9 0] 1 0
r 1.650270703 _7_ RTR  --- 18 tcp 1540 [13a 7 16 800] ------- [0:0 4:0 29 7] [9 0] 2 0
f 1.650270703 _7_ RTR  --- 18 tcp 1540 [13a 7 16 800] ------- [0:0 4:0 28 2] [9 0] 2 0
r 1.664236836 _2_ RTR  --- 18 tcp 1540 [13a 2 7 800] ------- [0:0 4:0 28 2] [9 0] 3 0
f 1.664236836 _2_ RTR  --- 18 tcp 1540 [13a 2 7 800] ------- [0:0 4:0 27 4] [9 0] 3 0
r 1.678401799 _4_ AGT  --- 18 tcp 1540 [13a 4 2 800] ------- [0:0 4:0 27 4] [9 0] 4 0
s 1.678401799 _4_ AGT  --- 25 ack 40 [0 0 0 0] ------- [4:0 0:0 32 0] [9 0] 0 0
r 1.678401799 _4_ RTR  --- 25 ack 40 [0 0 0 0] ------- [4:0 0:0 32 0] [9 0] 0 0
s 1.678401799 _4_ RTR  --- 25 ack 40 [0 0 0 0] ------- [4:0 0:0 30 2] [9 0] 0 0
r 1.680466763 _2_ RTR  --- 25 ack 40 [13a 2 4 800] ------- [4:0 0:0 30 2] [9 0] 1 0
f 1.680466763 _2_ RTR  --- 25 ack 40 [13a 2 4 800] ------- [4:0 0:0 29 7] [9 0] 1 0
r 1.682332894 _7_ RTR  --- 25 ack 40 [13a 7 2 800] ------- [4:0 0:0 29 7] [9 0] 2 0
f 1.682332894 _7_ RTR  --- 25 ack 40 [13a 7 2 800] ------- [4:0 0:0 28 22] [9 0] 2 0
r 1.684338680 _22_ RTR  --- 25 ack 40 [13a 16 7 800] ------- [4:0 0:0 28 22] [9 0] 3 0
f 1.684338680 _22_ RTR  --- 25 ack 40 [13a 16 7 800] ------- [4:0 0:0 27 0] [9 0] 3 0
r 1.686405040 _0_ AGT  --- 25 ack 40 [13a 0 16 800] ------- [4:0 0:0 27 0] [9 0] 4 0
s 1.686405040 _0_ AGT  --- 26 tcp 1540 [0 0 0 0] ------- [0:0 4:0 32 0] [16 0] 0 0
r 1.686405040 _0_ RTR  --- 26 tcp 1540 [0 0 0 0] ------- [0:0 4:0 32 0] [16 0] 0 0
s 1.686405040 _0_ AGT  --- 27 tcp 1540 [0 0 0 0] ------- [0:0 4:0 32 0] [17 0] 0 0
r 1.686405040 _0_ RTR  --- 27 tcp 1540 [0 0 0 0] ------- [0:0 4:0 32 0] [17 0] 0 0
s 1.686405040 _0_ RTR  --- 26 tcp 1540 [0 0 0 0] ------- [0:0 4:0 30 22] [16 0] 0 0
s 1.686405040 _0_ RTR  --- 27 tcp 1540 [0 0 0 0] ------- [0:0 4:0 30 22] [17 0] 0 0
r 1.701271401 _22_ RTR  --- 19 tcp 1540 [13a 16 0 800] ------- [0:0 4:0 30 22] [10 0] 1 0
f 1.701271401 _22_ RTR  --- 19 tcp 1540 [13a 16 0 800] ------- [0:0 4:0 29 7] [10 0] 1 0
r 1.715217187 _7_ RTR  --- 19 tcp 1540 [13a 7 16 800] ------- [0:0 4:0 29 7] [10 0] 2 0
f 1.715217187 _7_ RTR  --- 19 tcp 1540 [13a 7 16 800] ------- [0:0 4:0 28 2] [10 0] 2 0
r 1.729523316 _2_ RTR  --- 19 tcp 1540 [13a 2 7 800] ------- [0:0 4:0 28 2] [10 0] 3 0
f 1.729523316 _2_ RTR  --- 19 tcp 1540 [13a 2 7 800] ------- [0:0 4:0 27 4] [10 0] 3 0
r 1.743748281 _4_ AGT  --- 19 tcp 1540 [13a 4 2 800] ------- [0:0 4:0 27 4] [10 0] 4 0
s 1.743748281 _4_ AGT  --- 28 ack 40 [0 0 0 0] ------- [4:0 0:0 32 0] [10 0] 0 0
r 1.743748281 _4_ RTR  --- 28 ack 40 [0 0 0 0] ------- [4:0 0:0 32 0] [10 0] 0 0
s 1.743748281 _4_ RTR  --- 28 ack 40 [0 0 0 0] ------- [4:0 0:0 30 2] [10 0] 0 0
r 1.745953247 _2_ RTR  --- 28 ack 40 [13a 2 4 800] ------- [4:0 0:0 30 2] [10 0] 1 0
f 1.745953247 _2_ RTR  --- 28 ack 40 [13a 2 4 800] ------- [4:0 0:0 29 7] [10 0] 1 0
r 1.747899374 _7_ RTR  --- 28 ack 40 [13a 7 2 800] ------- [4:0 0:0 29 7] [10 0] 2 0
f 1.747899374 _7_ RTR  --- 28 ack 40 [13a 7 2 800] ------- [4:0 0:0 28 22] [10 0] 2 0