M 1.00000 0 (805.00, 466.00, 0.00), (493.00, 766.00), 9.00
M 1.00000 1 (218.00, 337.00, 0.00), (123.00, 883.00), 10.00
M 1.00000 2 (253.00, 575.00, 0.00), (793.00, 482.00), 4.00
M 1.00000 3 (552.00, 642.00, 0.00), (166.00, 957.00), 2.00
M 1.00000 4 (170.00, 620.00, 0.00), (529.00, 169.00), 1.00
M 1.00000 5 (237.00, 666.00, 0.00), (905.00, 21.00), 3.00
M 1.00000 6 (982.00, 601.00, 0.00), (78.00, 568.00), 10.00
M 1.00000 7 (448.00, 669.00, 0.00), (191.00, 275.00), 2.00
M 1.00000 8 (569.00, 132.00, 0.00), (98.00, 630.00), 5.00
M 1.00000 9 (178.00, 955.00, 0.00), (519.00, 271.00), 9.00
M 1.00000 10 (949.00, 302.00, 0.00), (176.00, 162.00), 2.00
M 1.00000 11 (592.00, 448.00, 0.00), (275.00, 124.00), 4.00
M 1.00000 12 (346.00, 386.00, 0.00), (508.00, 204.00), 5.00
M 1.00000 13 (217.00, 454.00, 0.00), (262.00, 363.00), 8.00
M 1.00000 14 (162.00, 727.00, 0.00), (967.00, 374.00), 2.00
M 1.00000 15 (457.00, 100.00, 0.00), (794.00, 86.00), 1.00
M 1.00000 16 (469.00, 321.00, 0.00), (785.00, 802.00), 4.00
M 1.00000 17 (280.00, 122.00, 0.00), (20.00, 58.00), 9.00
M 1.00000 18 (818.00, 765.00, 0.00), (298.00, 859.00), 0.00
M 1.00000 19 (794.00, 55.00, 0.00), (965.00, 806.00), 5.00
M 1.00000 20 (952.00, 599.00, 0.00), (51.00, 474.00), 4.00
M 1.00000 21 (961.00, 219.00, 0.00), (690.00, 115.00), 2.00
M 1.00000 22 (578.00, 546.00, 0.00), (241.00, 236.00), 3.00
M 1.00000 23 (30.00, 222.00, 0.00), (692.00, 41.00), 0.00
M 1.00000 24 (310.00, 622.00, 0.00), (94.00, 944.00), 1.00
s 1.000000000 _0_ AGT  --- 0 tcp 40 [0 0 0 0] ------- [0:0 4:0 32 0] [0 0] 0 0
r 1.000000000 _0_ RTR  --- 0 tcp 40 [0 0 0 0] ------- [0:0 4:0 32 0] [0 0] 0 0
s 1.000000000 _0_ RTR  --- 0 AODV 48 [0 0 0 0] ------- [0:255 -1:255 30 0] [0x2 1 1 [4 0] [0 4]] (REQUEST)
r 1.000988661 _20_ RTR  --- 0 AODV 48 [0 ffffffff 0 800] ------- [0:255 -1:255 30 0] [0x2 1 1 [4 0] [0 4]] (REQUEST)
r 1.000988713 _11_ RTR  --- 0 AODV 48 [0 ffffffff 0 800] ------- [0:255 -1:255 30 0] [0x2 1 1 [4 0] [0 4]] (REQUEST)
r 1.000988727 _10_ RTR  --- 0 AODV 48 [0 ffffffff 0 800] ------- [0:255 -1:255 30 0] [0x2 1 1 [4 0] [0 4]] (REQUEST)
r 1.000988742 _6_ RTR  --- 0 AODV 48 [0 ffffffff 0 800] ------- [0:255 -1:255 30 0] [0x2 1 1 [4 0] [0 4]] (REQUEST)
r 1.000988802 _22_ RTR  --- 0 AODV 48 [0 ffffffff 0 800] ------- [0:255 -1:255 30 0] [0x2 1 1 [4 0] [0 4]] (REQUEST)
s 1.001869888 _20_ RTR  --- 0 AODV 48 [0 ffffffff 0 800] ------- [20:255 -1:255 29 0] [0x2 2 1 [4 0] [0 4]] (REQUEST)
r 1.003057988 _6_ RTR  --- 0 AODV 48 [0 ffffffff 14 800] ------- [20:255 -1:255 29 0] [0x2 2 1 [4 0] [0 4]] (REQUEST)
r 1.003058548 _0_ RTR  --- 0 AODV 48 [0 ffffffff 14 800] ------- [20:255 -1:255 29 0] [0x2 2 1 [4 0] [0 4]] (REQUEST)
r 1.003058599 _18_ RTR  --- 0 AODV 48 [0 ffffffff 14 800] ------- [20:255 -1:255 29 0] [0x2 2 1 [4 0] [0 4]] (REQUEST)
s 1.004118360 _6_ RTR  --- 0 AODV 48 [0 ffffffff 0 800] ------- [6:255 -1:255 29 0] [0x2 2 1 [4 0] [0 4]] (REQUEST)
r 1.005306460 _20_ RTR  --- 0 AODV 48 [0 ffffffff 6 800] ------- [6:255 -1:255 29 0] [0x2 2 1 [4 0] [0 4]] (REQUEST)
r 1.005307102 _0_ RTR  --- 0 AODV 48 [0 ffffffff 6 800] ------- [6:255 -1:255 29 0] [0x2 2 1 [4 0] [0 4]] (REQUEST)
r 1.005307133 _18_ RTR  --- 0 AODV 48 [0 ffffffff 6 800] ------- [6:255 -1:255 29 0] [0x2 2 1 [4 0] [0 4]] (REQUEST)
s 1.005400446 _11_ RTR  --- 0 AODV 48 [0 ffffffff 0 800] ------- [11:255 -1:255 29 0] [0x2 2 1 [4 0] [0 4]] (REQUEST)
s 1.006149389 _18_ RTR  --- 0 AODV 48 [0 ffffffff 14 800] ------- [18:255 -1:255 28 0] [0x2 3 1 [4 0] [0 4]] (REQUEST)
r 1.007110086 _22_ RTR  --- 0 AODV 48 [0 ffffffff b 800] ------- [11:255 -1:255 29 0] [0x2 2 1 [4 0] [0 4]] (REQUEST)
r 1.007110345 _16_ RTR  --- 0 AODV 48 [0 ffffffff b 800] ------- [11:255 -1:255 29 0] [0x2 2 1 [4 0] [0 4]] (REQUEST)
r 1.007110416 _3_ RTR  --- 0 AODV 48 [0 ffffffff b 800] ------- [11:255 -1:255 29 0] [0x2 2 1 [4 0] [0 4]] (REQUEST)
r 1.007110469 _0_ RTR  --- 0 AODV 48 [0 ffffffff b 800] ------- [11:255 -1:255 29 0] [0x2 2 1 [4 0] [0 4]] (REQUEST)
r 1.008533765 _20_ RTR  --- 0 AODV 48 [0 ffffffff 12 800] ------- [18:255 -1:255 28 0] [0x2 3 1 [4 0] [0 4]] (REQUEST)
r 1.008533827 _6_ RTR  --- 0 AODV 48 [0 ffffffff 12 800] ------- [18:255 -1:255 28 0] [0x2 3 1 [4 0] [0 4]] (REQUEST)
s 1.008980282 _10_ RTR  --- 0 AODV 48 [0 ffffffff 0 800] ------- [10:255 -1:255 29 0] [0x2 2 1 [4 0] [0 4]] (REQUEST)
s 1.009153563 _22_ RTR  --- 0 AODV 48 [0 ffffffff 0 800] ------- [22:255 -1:255 29 0] [0x2 2 1 [4 0] [0 4]] (REQUEST)
r 1.010268562 _21_ RTR  --- 0 AODV 48 [0 ffffffff a 800] ------- [10:255 -1:255 29 0] [0x2 2 1 [4 0] [0 4]] (REQUEST)
r 1.010269010 _0_ RTR  --- 0 AODV 48 [0 ffffffff a 800] ------- [10:255 -1:255 29 0] [0x2 2 1 [4 0] [0 4]] (REQUEST)
s 1.011346984 _3_ RTR  --- 0 AODV 48 [0 ffffffff b 800] ------- [3:255 -1:255 28 0] [0x2 3 1 [4 0] [0 4]] (REQUEST)
r 1.011692092 _11_ RTR  --- 0 AODV 48 [0 ffffffff 16 800] ------- [22:255 -1:255 29 0] [0x2 2 1 [4 0] [0 4]] (REQUEST)
r 1.011692094 _3_ RTR  --- 0 AODV 48 [0 ffffffff 16 800] ------- [22:255 -1:255 29 0] [0x2 2 1 [4 0] [0 4]] (REQUEST)
r 1.011692359 _7_ RTR  --- 0 AODV 48 [0 ffffffff 16 800] ------- [22:255 -1:255 29 0] [0x2 2 1 [4 0] [0 4]] (REQUEST)
r 1.011692564 _0_ RTR  --- 0 AODV 48 [0 ffffffff 16 800] ------- [22:255 -1:255 29 0] [0x2 2 1 [4 0] [0 4]] (REQUEST)
r 1.011692595 _16_ RTR  --- 0 AODV 48 [0 ffffffff 16 800] ------- [22:255 -1:255 29 0] [0x2 2 1 [4 0] [0 4]] (REQUEST)
r 1.012610425 _22_ RTR  --- 0 AODV 48 [0 ffffffff 3 800] ------- [3:255 -1:255 28 0] [0x2 3 1 [4 0] [0 4]] (REQUEST)
r 1.012610452 _7_ RTR  --- 0 AODV 48 [0 ffffffff 3 800] ------- [3:255 -1:255 28 0] [0x2 3 1 [4 0] [0 4]] (REQUEST)
r 1.012610754 _11_ RTR  --- 0 AODV 48 [0 ffffffff 3 800] ------- [3:255 -1:255 28 0] [0x2 3 1 [4 0] [0 4]] (REQUEST)
r 1.012610903 _24_ RTR  --- 0 AODV 48 [0 ffffffff 3 800] ------- [3:255 -1:255 28 0] [0x2 3 1 [4 0] [0 4]] (REQUEST)
s 1.012849441 _21_ RTR  --- 0 AODV 48 [0 ffffffff a 800] ------- [21:255 -1:255 28 0] [0x2 3 1 [4 0] [0 4]] (REQUEST)
r 1.014197721 _10_ RTR  --- 0 AODV 48 [0 ffffffff 15 800] ------- [21:255 -1:255 28 0] [0x2 3 1 [4 0] [0 4]] (REQUEST)
r 1.014198221 _19_ RTR  --- 0 AODV 48 [0 ffffffff 15 800] ------- [21:255 -1:255 28 0] [0x2 3 1 [4 0] [0 4]] (REQUEST)
s 1.015707622 _16_ RTR  --- 0 AODV 48 [0 ffffffff b 800] ------- [16:255 -1:255 28 0] [0x2 3 1 [4 0] [0 4]] (REQUEST)
s 1.016353518 _7_ RTR  --- 0 AODV 48 [0 ffffffff 16 800] ------- [7:255 -1:255 28 0] [0x2 3 1 [4 0] [0 4]] (REQUEST)
s 1.016610477 _19_ RTR  --- 0 AODV 48 [0 ffffffff 15 800] ------- [19:255 -1:255 27 0] [0x2 4 1 [4 0] [0 4]] (REQUEST)
r 1.016696086 _12_ RTR  --- 0 AODV 48 [0 ffffffff 10 800] ------- [16:255 -1:255 28 0] [0x2 3 1 [4 0] [0 4]] (REQUEST)
r 1.016696211 _11_ RTR  --- 0 AODV 48 [0 ffffffff 10 800] ------- [16:255 -1:255 28 0] [0x2 3 1 [4 0] [0 4]] (REQUEST)
r 1.016696335 _8_ RTR  --- 0 AODV 48 [0 ffffffff 10 800] ------- [16:255 -1:255 28 0] [0x2 3 1 [4 0] [0 4]] (REQUEST)
r 1.016696360 _15_ RTR  --- 0 AODV 48 [0 ffffffff 10 800] ------- [16:255 -1:255 28 0] [0x2 3 1 [4 0] [0 4]] (REQUEST)
r 1.016696455 _22_ RTR  --- 0 AODV 48 [0 ffffffff 10 800] ------- [16:255 -1:255 28 0] [0x2 3 1 [4 0] [0 4]] (REQUEST)
s 1.017788320 _8_ RTR  --- 0 AODV 48 [0 ffffffff 10 800] ------- [8:255 -1:255 27 0] [0x2 4 1 [4 0] [0 4]] (REQUEST)
r 1.018259142 _3_ RTR  --- 0 AODV 48 [0 ffffffff 7 800] ------- [7:255 -1:255 28 0] [0x2 3 1 [4 0] [0 4]] (REQUEST)
r 1.018259270 _24_ RTR  --- 0 AODV 48 [0 ffffffff 7 800] ------- [7:255 -1:255 28 0] [0x2 3 1 [4 0] [0 4]] (REQUEST)
r 1.018259381 _22_ RTR  --- 0 AODV 48 [0 ffffffff 7 800] ------- [7:255 -1:255 28 0] [0x2 3 1 [4 0] [0 4]] (REQUEST)
r 1.018259487 _5_ RTR  --- 0 AODV 48 [0 ffffffff 7 800] ------- [7:255 -1:255 28 0] [0x2 3 1 [4 0] [0 4]] (REQUEST)
r 1.018259505 _2_ RTR  --- 0 AODV 48 [0 ffffffff 7 800] ------- [7:255 -1:255 28 0] [0x2 3 1 [4 0] [0 4]] (REQUEST)
r 1.018319802 _21_ RTR  --- 0 AODV 48 [0 ffffffff 13 800] ------- [19:255 -1:255 27 0] [0x2 4 1 [4 0] [0 4]] (REQUEST)
r 1.018319815 _8_ RTR  --- 0 AODV 48 [0 ffffffff 13 800] ------- [19:255 -1:255 27 0] [0x2 4 1 [4 0] [0 4]] (REQUEST)
r 1.019318203 _15_ RTR  --- 0 AODV 48 [0 ffffffff 8 800] ------- [8:255 -1:255 27 0] [0x2 4 1 [4 0] [0 4]] (REQUEST)
r 1.019318528 _16_ RTR  --- 0 AODV 48 [0 ffffffff 8 800] ------- [8:255 -1:255 27 0] [0x2 4 1 [4 0] [0 4]] (REQUEST)
r 1.019318608 _19_ RTR  --- 0 AODV 48 [0 ffffffff 8 800] ------- [8:255 -1:255 27 0] [0x2 4 1 [4 0] [0 4]] (REQUEST)
s 1.020738435 _15_ RTR  --- 0 AODV 48 [0 ffffffff 10 800] ------- [15:255 -1:255 27 0] [0x2 4 1 [4 0] [0 4]] (REQUEST)
s 1.020751277 _12_ RTR  --- 0 AODV 48 [0 ffffffff 10 800] ------- [12:255 -1:255 27 0] [0x2 4 1 [4 0] [0 4]] (REQUEST)
s 1.021231576 _24_ RTR  --- 0 AODV 48 [0 ffffffff 3 800] ------- [24:255 -1:255 27 0] [0x2 4 1 [4 0] [0 4]] (REQUEST)
r 1.021806824 _8_ RTR  --- 0 AODV 48 [0 ffffffff f 800] ------- [15:255 -1:255 27 0] [0x2 4 1 [4 0] [0 4]] (REQUEST)
r 1.021807031 _17_ RTR  --- 0 AODV 48 [0 ffffffff f 800] ------- [15:255 -1:255 27 0] [0x2 4 1 [4 0] [0 4]] (REQUEST)
r 1.021807173 _16_ RTR  --- 0 AODV 48 [0 ffffffff f 800] ------- [15:255 -1:255 27 0] [0x2 4 1 [4 0] [0 4]] (REQUEST)
r 1.023309915 _1_ RTR  --- 0 AODV 48 [0 ffffffff c 800] ------- [12:255 -1:255 27 0] [0x2 4 1 [4 0] [0 4]] (REQUEST)
r 1.023309921 _16_ RTR  --- 0 AODV 48 [0 ffffffff c 800] ------- [12:255 -1:255 27 0] [0x2 4 1 [4 0] [0 4]] (REQUEST)
r 1.023309944 _13_ RTR  --- 0 AODV 48 [0 ffffffff c 800] ------- [12:255 -1:255 27 0] [0x2 4 1 [4 0] [0 4]] (REQUEST)
r 1.023310160 _2_ RTR  --- 0 AODV 48 [0 ffffffff c 800] ------- [12:255 -1:255 27 0] [0x2 4 1 [4 0] [0 4]] (REQUEST)
r 1.023310254 _24_ RTR  --- 0 AODV 48 [0 ffffffff c 800] ------- [12:255 -1:255 27 0] [0x2 4 1 [4 0] [0 4]] (REQUEST)
r 1.024468500 _2_ RTR  --- 0 AODV 48 [0 ffffffff 18 800] ------- [24:255 -1:255 27 0] [0x2 4 1 [4 0] [0 4]] (REQUEST)
r 1.024468538 _5_ RTR  --- 0 AODV 48 [0 ffffffff 18 800] ------- [24:255 -1:255 27 0] [0x2 4 1 [4 0] [0 4]] (REQUEST)
r 1.024468721 _4_ RTR  --- 0 AODV 48 [0 ffffffff 18 800] ------- [24:255 -1:255 27 0] [0x2 4 1 [4 0] [0 4]] (REQUEST)
s 1.024468721 _4_ RTR  --- 0 AODV 44 [0 0 0 0] ------- [4:255 0:255 30 24] [0x4 1 [4 4] 10.000000] (REPLY)
r 1.024468740 _7_ RTR  --- 0 AODV 48 [0 ffffffff 18 800] ------- [24:255 -1:255 27 0] [0x2 4 1 [4 0] [0 4]] (REQUEST)
r 1.024468859 _14_ RTR  --- 0 AODV 48 [0 ffffffff 18 800] ------- [24:255 -1:255 27 0] [0x2 4 1 [4 0] [0 4]] (REQUEST)
r 1.024468894 _13_ RTR  --- 0 AODV 48 [0 ffffffff 18 800] ------- [24:255 -1:255 27 0] [0x2 4 1 [4 0] [0 4]] (REQUEST)
r 1.024469050 _12_ RTR  --- 0 AODV 48 [0 ffffffff 18 800] ------- [24:255 -1:255 27 0] [0x2 4 1 [4 0] [0 4]] (REQUEST)
r 1.024469063 _3_ RTR  --- 0 AODV 48 [0 ffffffff 18 800] ------- [24:255 -1:255 27 0] [0x2 4 1 [4 0] [0 4]] (REQUEST)
s 1.027087100 _14_ RTR  --- 0 AODV 48 [0 ffffffff 18 800] ------- [14:255 -1:255 26 0] [0x2 5 1 [4 0] [0 4]] (REQUEST)
s 1.027172984 _2_ RTR  --- 0 AODV 48 [0 ffffffff 7 800] ------- [2:255 -1:255 27 0] [0x2 4 1 [4 0] [0 4]] (REQUEST)
s 1.027722137 _5_ RTR  --- 0 AODV 48 [0 ffffffff 7 800] ------- [5:255 -1:255 27 0] [0x2 4 1 [4 0] [0 4]] (REQUEST)
r 1.028121230 _24_ RTR  --- 0 AODV 48 [0 ffffffff 2 800] ------- [2:255 -1:255 27 0] [0x2 4 1 [4 0] [0 4]] (REQUEST)
r 1.028121292 _5_ RTR  --- 0 AODV 48 [0 ffffffff 2 800] ------- [2:255 -1:255 27 0] [0x2 4 1 [4 0] [0 4]] (REQUEST)
r 1.028121299 _4_ RTR  --- 0 AODV 48 [0 ffffffff 2 800] ------- [2:255 -1:255 27 0] [0x2 4 1 [4 0] [0 4]] (REQUEST)
r 1.028121405 _13_ RTR  --- 0 AODV 48 [0 ffffffff 2 800] ------- [2:255 -1:255 27 0] [0x2 4 1 [4 0] [0 4]] (REQUEST)
r 1.028121574 _14_ RTR  --- 0 AODV 48 [0 ffffffff 2 800] ------- [2:255 -1:255 27 0] [0x2 4 1 [4 0] [0 4]] (REQUEST)
r 1.028121686 _12_ RTR  --- 0 AODV 48 [0 ffffffff 2 800] ------- [2:255 -1:255 27 0] [0x2 4 1 [4 0] [0 4]] (REQUEST)
r 1.028121705 _7_ RTR  --- 0 AODV 48 [0 ffffffff 2 800] ------- [2:255 -1:255 27 0] [0x2 4 1 [4 0] [0 4]] (REQUEST)
r 1.028121785 _1_ RTR  --- 0 AODV 48 [0 ffffffff 2 800] ------- [2:255 -1:255 27 0] [0x2 4 1 [4 0] [0 4]] (REQUEST)
s 1.028493270 _17_ RTR  --- 0 AODV 48 [0 ffffffff f 800] ------- [17:255 -1:255 26 0] [0x2 5 1 [4 0] [0 4]] (REQUEST)
s 1.028758163 _13_ RTR  --- 0 AODV 48 [0 ffffffff c 800] ------- [13:255 -1:255 26 0] [0x2 5 1 [4 0] [0 4]] (REQUEST)
r 1.029059897 _5_ RTR  --- 0 AODV 48 [0 ffffffff e 800] ------- [14:255 -1:255 26 0] [0x2 5 1 [4 0] [0 4]] (REQUEST)
r 1.029059932 _4_ RTR  --- 0 AODV 48 [0 ffffffff e 800] ------- [14:255 -1:255 26 0] [0x2 5 1 [4 0] [0 4]] (REQUEST)
r 1.029060165 _2_ RTR  --- 0 AODV 48 [0 ffffffff e 800] ------- [14:255 -1:255 26 0] [0x2 5 1 [4 0] [0 4]] (REQUEST)
r 1.029060179 _24_ RTR  --- 0 AODV 48 [0 ffffffff e 800] ------- [14:255 -1:255 26 0] [0x2 5 1 [4 0] [0 4]] (REQUEST)
r 1.029060335 _9_ RTR  --- 0 AODV 48 [0 ffffffff e 800] ------- [14:255 -1:255 26 0] [0x2 5 1 [4 0] [0 4]] (REQUEST)
r 1.029721865 _15_ RTR  --- 0 AODV 48 [0 ffffffff 11 800] ------- [17:255 -1:255 26 0] [0x2 5 1 [4 0] [0 4]] (REQUEST)
s 1.030296647 _1_ RTR  --- 0 AODV 48 [0 ffffffff c 800] ------- [1:255 -1:255 26 0] [0x2 5 1 [4 0] [0 4]] (REQUEST)
s 1.030847614 _9_ RTR  --- 0 AODV 48 [0 ffffffff e 800] ------- [9:255 -1:255 25 0] [0x2 6 1 [4 0] [0 4]] (REQUEST)
r 1.031004784 _1_ RTR  --- 0 AODV 48 [0 ffffffff d 800] ------- [13:255 -1:255 26 0] [0x2 5 1 [4 0] [0 4]] (REQUEST)
r 1.031004817 _2_ RTR  --- 0 AODV 48 [0 ffffffff d 800] ------- [13:255 -1:255 26 0] [0x2 5 1 [4 0] [0 4]] (REQUEST)
r 1.031004881 _12_ RTR  --- 0 AODV 48 [0 ffffffff d 800] ------- [13:255 -1:255 26 0] [0x2 5 1 [4 0] [0 4]] (REQUEST)
r 1.031004971 _4_ RTR  --- 0 AODV 48 [0 ffffffff d 800] ------- [13:255 -1:255 26 0] [0x2 5 1 [4 0] [0 4]] (REQUEST)
r 1.031005036 _24_ RTR  --- 0 AODV 48 [0 ffffffff d 800] ------- [13:255 -1:255 26 0] [0x2 5 1 [4 0] [0 4]] (REQUEST)
r 1.031005106 _5_ RTR  --- 0 AODV 48 [0 ffffffff d 800] ------- [13:255 -1:255 26 0] [0x2 5 1 [4 0] [0 4]] (REQUEST)
r 1.032628371 _24_ RTR  --- 0 AODV 44 [13a 18 4 800] ------- [4:255 0:255 30 24] [0x4 1 [4 4] 10.000000] (REPLY)
f 1.032628371 _24_ RTR  --- 0 AODV 44 [13a 18 4 800] ------- [4:255 0:255 29 3] [0x4 2 [4 4] 10.000000] (REPLY)
r 1.033940926 _4_ RTR  --- 0 AODV 48 [0 ffffffff 5 800] ------- [5:255 -1:255 27 0] [0x2 4 1 [4 0] [0 4]] (REQUEST)
r 1.033940938 _24_ RTR  --- 0 AODV 48 [0 ffffffff 5 800] ------- [5:255 -1:255 27 0] [0x2 4 1 [4 0] [0 4]] (REQUEST)
r 1.033940962 _2_ RTR  --- 0 AODV 48 [0 ffffffff 5 800] ------- [5:255 -1:255 27 0] [0x2 4 1 [4 0] [0 4]] (REQUEST)
r 1.033940977 _14_ RTR  --- 0 AODV 48 [0 ffffffff 5 800] ------- [5:255 -1:255 27 0] [0x2 4 1 [4 0] [0 4]] (REQUEST)
r 1.033941358 _7_ RTR  --- 0 AODV 48 [0 ffffffff 5 800] ------- [5:255 -1:255 27 0] [0x2 4 1 [4 0] [0 4]] (REQUEST)
r 1.033941365 _13_ RTR  --- 0 AODV 48 [0 ffffffff 5 800] ------- [5:255 -1:255 27 0] [0x2 4 1 [4 0] [0 4]] (REQUEST)
r 1.038079603 _3_ RTR  --- 0 AODV 44 [13a 3 18 800] ------- [4:255 0:255 29 3] [0x4 2 [4 4] 10.000000] (REPLY)
f 1.038079603 _3_ RTR  --- 0 AODV 44 [13a 3 18 800] ------- [4:255 0:255 28 11] [0x4 3 [4 4] 10.000000] (REPLY)
r 1.041622952 _13_ RTR  --- 0 AODV 48 [0 ffffffff 1 800] ------- [1:255 -1:255 26 0] [0x2 5 1 [4 0] [0 4]] (REQUEST)
r 1.041623021 _12_ RTR  --- 0 AODV 48 [0 ffffffff 1 800] ------- [1:255 -1:255 26 0] [0x2 5 1 [4 0] [0 4]] (REQUEST)
r 1.041623299 _23_ RTR  --- 0 AODV 48 [0 ffffffff 1 800] ------- [1:255 -1:255 26 0] [0x2 5 1 [4 0] [0 4]] (REQUEST)
r 1.041623311 _17_ RTR  --- 0 AODV 48 [0 ffffffff 1 800] ------- [1:255 -1:255 26 0] [0x2 5 1 [4 0] [0 4]] (REQUEST)
r 1.041623365 _2_ RTR  --- 0 AODV 48 [0 ffffffff 1 800] ------- [1:255 -1:255 26 0] [0x2 5 1 [4 0] [0 4]] (REQUEST)
r 1.045521829 _11_ RTR  --- 0 AODV 44 [13a b 3 800] ------- [4:255 0:255 28 11] [0x4 3 [4 4] 10.000000] (REPLY)
f 1.045521829 _11_ RTR  --- 0 AODV 44 [13a b 3 800] ------- [4:255 0:255 27 0] [0x4 4 [4 4] 10.000000] (REPLY)
s 1.049643418 _23_ RTR  --- 0 AODV 48 [0 ffffffff 1 800] ------- [23:255 -1:255 25 0] [0x2 6 1 [4 0] [0 4]] (REQUEST)
r 1.050873813 _0_ RTR  --- 0 AODV 44 [13a 0 b 800] ------- [4:255 0:255 27 0] [0x4 4 [4 4] 10.000000] (REPLY)
s 1.050873813 _0_ RTR  --- 0 tcp 40 [0 0 0 0] ------- [0:0 4:0 30 11] [0 0] 0 0
r 1.052779949 _11_ RTR  --- 0 tcp 40 [13a b 0 800] ------- [0:0 4:0 30 11] [0 0] 1 0
f 1.052779949 _11_ RTR  --- 0 tcp 40 [13a b 0 800] ------- [0:0 4:0 29 3] [0 0] 1 0
r 1.055185932 _3_ RTR  --- 0 tcp 40 [13a 3 b 800] ------- [0:0 4:0 29 3] [0 0] 2 0
f 1.055185932 _3_ RTR  --- 0 tcp 40 [13a 3 b 800] ------- [0:0 4:0 28 24] [0 0] 2 0
r 1.057192360 _24_ RTR  --- 0 tcp 40 [13a 18 3 800] ------- [0:0 4:0 28 24] [0 0] 3 0
f 1.057192360 _24_ RTR  --- 0 tcp 40 [13a 18 3 800] ------- [0:0 4:0 27 4] [0 0] 3 0
r 1.059457759 _4_ AGT  --- 0 tcp 40 [13a 4 18 800] ------- [0:0 4:0 27 4] [0 0] 4 0
s 1.059457759 _4_ AGT  --- 1 ack 40 [0 0 0 0] ------- [4:0 0:0 32 0] [0 0] 0 0
r 1.059457759 _4_ RTR  --- 1 ack 40 [0 0 0 0] ------- [4:0 0:0 32 0] [0 0] 0 0
s 1.059457759 _4_ RTR  --- 1 ack 40 [0 0 0 0] ------- [4:0 0:0 30 24] [0 0] 0 0
r 1.061403159 _24_ RTR  --- 1 ack 40 [13a 18 4 800] ------- [4:0 0:0 30 24] [0 0] 1 0
f 1.061403159 _24_ RTR  --- 1 ack 40 [13a 18 4 800] ------- [4:0 0:0 29 3] [0 0] 1 0
r 1.063289586 _3_ RTR  --- 1 ack 40 [13a 3 18 800] ------- [4:0 0:0 29 3] [0 0] 2 0
f 1.063289586 _3_ RTR  --- 1 ack 40 [13a 3 18 800] ------- [4:0 0:0 28 11] [0 0] 2 0
r 1.065115570 _11_ RTR  --- 1 ack 40 [13a b 3 800] ------- [4:0 0:0 28 11] [0 0] 3 0
f 1.065115570 _11_ RTR  --- 1 ack 40 [13a b 3 800] ------- [4:0 0:0 27 0] [0 0] 3 0
r 1.067301705 _0_ AGT  --- 1 ack 40 [13a 0 b 800] ------- [4:0 0:0 27 0] [0 0] 4 0
s 1.067301705 _0_ AGT  --- 2 tcp 1540 [0 0 0 0] ------- [0:0 4:0 32 0] [1 0] 0 0
r 1.067301705 _0_ RTR  --- 2 tcp 1540 [0 0 0 0] ------- [0:0 4:0 32 0] [1 0] 0 0
s 1.067301705 _0_ AGT  --- 3 tcp 1540 [0 0 0 0] ------- [0:0 4:0 32 0] [2 0] 0 0
r 1.067301705 _0_ RTR  --- 3 tcp 1540 [0 0 0 0] ------- [0:0 4:0 32 0] [2 0] 0 0
s 1.067301705 _0_ RTR  --- 2 tcp 1540 [0 0 0 0] ------- [0:0 4:0 30 11] [1 0] 0 0
s 1.067301705 _0_ RTR  --- 3 tcp 1540 [0 0 0 0] ------- [0:0 4:0 30 11] [2 0] 0 0
r 1.081547841 _11_ RTR  --- 2 tcp 1540 [13a b 0 800] ------- [0:0 4:0 30 11] [1 0] 1 0
f 1.081547841 _11_ RTR  --- 2 tcp 1540 [13a b 0 800] ------- [0:0 4:0 29 3] [1 0] 1 0
r 1.095473825 _3_ RTR  --- 2 tcp 1540 [13a 3 b 800] ------- [0:0 4:0 29 3] [1 0] 2 0
f 1.095473825 _3_ RTR  --- 2 tcp 1540 [13a 3 b 800] ------- [0:0 4:0 28 24] [1 0] 2 0
r 1.109460252 _24_ RTR  --- 2 tcp 1540 [13a 18 3 800] ------- [0:0 4:0 28 24] [1 0] 3 0
f 1.109460252 _24_ RTR  --- 2 tcp 1540 [13a 18 3 800] ------- [0:0 4:0 27 4] [1 0] 3 0
r 1.123545651 _4_ AGT  --- 2 tcp 1540 [13a 4 18 800] ------- [0:0 4:0 27 4] [1 0] 4 0
s 1.123545651 _4_ AGT  --- 4 ack 40 [0 0 0 0] ------- [4:0 0:0 32 0] [1 0] 0 0
r 1.123545651 _4_ RTR  --- 4 ack 40 [0 0 0 0] ------- [4:0 0:0 32 0] [1 0] 0 0
s 1.123545651 _4_ RTR  --- 4 ack 40 [0 0 0 0] ------- [4:0 0:0 30 24] [1 0] 0 0
r 1.130271050 _24_ RTR  --- 4 ack 40 [13a 18 4 800] ------- [4:0 0:0 30 24] [1 0] 1 0
f 1.130271050 _24_ RTR  --- 4 ack 40 [13a 18 4 800] ------- [4:0 0:0 29 3] [1 0] 1 0
r 1.132441998 _3_ RTR  --- 4 ack 40 [13a 3 18 800] ------- [4:0 0:0 29 3] [1 0] 2 0
f 1.132441998 _3_ RTR  --- 4 ack 40 [13a 3 18 800] ------- [4:0 0:0 28 11] [1 0] 2 0
r 1.134647984 _11_ RTR  --- 4 ack 40 [13a b 3 800] ------- [4:0 0:0 28 11] [1 0] 3 0
f 1.134647984 _11_ RTR  --- 4 ack 40 [13a b 3 800] ------- [4:0 0:0 27 0] [1 0] 3 0
r 1.136854117 _0_ AGT  --- 4 ack 40 [13a 0 b 800] ------- [4:0 0:0 27 0] [1 0] 4 0
s 1.136854117 _0_ AGT  --- 5 tcp 1540 [0 0 0 0] ------- [0:0 4:0 32 0] [3 0] 0 0
r 1.136854117 _0_ RTR  --- 5 tcp 1540 [0 0 0 0] ------- [0:0 4:0 32 0] [3 0] 0 0
s 1.136854117 _0_ AGT  --- 6 tcp 1540 [0 0 0 0] ------- [0:0 4:0 32 0] [4 0] 0 0
r 1.136854117 _0_ RTR  --- 6 tcp 1540 [0 0 0 0] ------- [0:0 4:0 32 0] [4 0] 0 0
s 1.136854117 _0_ RTR  --- 5 tcp 1540 [0 0 0 0] ------- [0:0 4:0 30 11] [3 0] 0 0
s 1.136854117 _0_ RTR  --- 6 tcp 1540 [0 0 0 0] ------- [0:0 4:0 30 11] [4 0] 0 0
r 1.158080251 _11_ RTR  --- 3 tcp 1540 [13a b 0 800] ------- [0:0 4:0 30 11] [2 0] 1 0
f 1.158080251 _11_ RTR  --- 3 tcp 1540 [13a b 0 800] ------- [0:0 4:0 29 3] [2 0] 1 0
r 1.172086238 _3_ RTR  --- 3 tcp 1540 [13a 3 b 800] ------- [0:0 4:0 29 3] [2 0] 2 0
f 1.172086238 _3_ RTR  --- 3 tcp 1540 [13a 3 b 800] ------- [0:0 4:0 28 24] [2 0] 2 0
r 1.186092664 _24_ RTR  --- 3 tcp 1540 [13a 18 3 800] ------- [0:0 4:0 28 24] [2 0] 3 0
f 1.186092664 _24_ RTR  --- 3 tcp 1540 [13a 18 3 800] ------- [0:0 4:0 27 4] [2 0] 3 0
r 1.200158062 _4_ AGT  --- 3 tcp 1540 [13a 4 18 800] ------- [0:0 4:0 27 4] [2 0] 4 0
s 1.200158062 _4_ AGT  --- 7 ack 40 [0 0 0 0] ------- [4:0 0:0 32 0] [2 0] 0 0
r 1.200158062 _4_ RTR  --- 7 ack 40 [0 0 0 0] ------- [4:0 0:0 32 0] [2 0] 0 0
s 1.200158062 _4_ RTR  --- 7 ack 40 [0 0 0 0] ------- [4:0 0:0 30 24] [2 0] 0 0
r 1.216815453 _11_ RTR  --- 5 tcp 1540 [13a b 0 800] ------- [0:0 4:0 30 11] [3 0] 1 0
f 1.216815453 _11_ RTR  --- 5 tcp 1540 [13a b 0 800] ------- [0:0 4:0 29 3] [3 0] 1 0
r 1.230781443 _3_ RTR  --- 5 tcp 1540 [13a 3 b 800] ------- [0:0 4:0 29 3] [3 0] 2 0
f 1.230781443 _3_ RTR  --- 5 tcp 1540 [13a 3 b 800] ------- [0:0 4:0 28 24] [3 0] 2 0
r 1.245092595 _11_ RTR  --- 6 tcp 1540 [13a b 0 800] ------- [0:0 4:0 30 11] [4 0] 1 0
f 1.245092595 _11_ RTR  --- 6 tcp 1540 [13a b 0 800] ------- [0:0 4:0 29 3] [4 0] 1 0
r 1.258918586 _3_ RTR  --- 6 tcp 1540 [13a 3 b 800] ------- [0:0 4:0 29 3] [4 0] 2 0
f 1.258918586 _3_ RTR  --- 6 tcp 1540 [13a 3 b 800] ------- [0:0 4:0 28 24] [4 0] 2 0
r 1.272785011 _24_ RTR  --- 5 tcp 1540 [13a 18 3 800] ------- [0:0 4:0 28 24] [3 0] 3 0
f 1.272785011 _24_ RTR  --- 5 tcp 1540 [13a 18 3 800] ------- [0:0 4:0 27 4] [3 0] 3 0
r 1.286612246 _24_ RTR  --- 6 tcp 1540 [13a 18 3 800] ------- [0:0 4:0 28 24] [4 0] 3 0
f 1.286612246 _24_ RTR  --- 6 tcp 1540 [13a 18 3 800] ------- [0:0 4:0 27 4] [4 0] 3 0
r 1.300677642 _4_ AGT  --- 5 tcp 1540 [13a 4 18 800] ------- [0:0 4:0 27 4] [3 0] 4 0
s 1.300677642 _4_ AGT  --- 8 ack 40 [0 0 0 0] ------- [4:0 0:0 32 0] [3 0] 0 0
r 1.300677642 _4_ RTR  --- 8 ack 40 [0 0 0 0] ------- [4:0 0:0 32 0] [3 0] 0 0
s 1.300677642 _4_ RTR  --- 8 ack 40 [0 0 0 0] ------- [4:0 0:0 30 24] [3 0] 0 0
r 1.314863505 _4_ AGT  --- 6 tcp 1540 [13a 4 18 800] ------- [0:0 4:0 27 4] [4 0] 4 0
s 1.314863505 _4_ AGT  --- 9 ack 40 [0 0 0 0] ------- [4:0 0:0 32 0] [4 0] 0 0
r 1.314863505 _4_ RTR  --- 9 ack 40 [0 0 0 0] ------- [4:0 0:0 32 0] [4 0] 0 0
s 1.314863505 _4_ RTR  --- 9 ack 40 [0 0 0 0] ------- [4:0 0:0 30 24] [4 0] 0 0
r 1.322368901 _24_ RTR  --- 7 ack 40 [13a 18 4 800] ------- [4:0 0:0 30 24] [2 0] 1 0
f 1.322368901 _24_ RTR  --- 7 ack 40 [13a 18 4 800] ------- [4:0 0:0 29 3] [2 0] 1 0
r 1.324695326 _3_ RTR  --- 7 ack 40 [13a 3 18 800] ------- [4:0 0:0 29 3] [2 0] 2 0
f 1.324695326 _3_ RTR  --- 7 ack 40 [13a 3 18 800] ------- [4:0 0:0 28 11] [2 0] 2 0
r 1.326661319 _11_ RTR  --- 7 ack 40 [13a b 3 800] ------- [4:0 0:0 28 11] [2 0] 3 0
f 1.326661319 _11_ RTR  --- 7 ack 40 [13a b 3 800] ------- [4:0 0:0 27 0] [2 0] 3 0
r 1.328972232 _24_ RTR  --- 8 ack 40 [13a 18 4 800] ------- [4:0 0:0 30 24] [3 0] 1 0
f 1.328972232 _24_ RTR  --- 8 ack 40 [13a 18 4 800] ------- [4:0 0:0 29 3] [3 0] 1 0
r 1.331098657 _3_ RTR  --- 8 ack 40 [13a 3 18 800] ------- [4:0 0:0 29 3] [3 0] 2 0
f 1.331098657 _3_ RTR  --- 8 ack 40 [13a 3 18 800] ------- [4:0 0:0 28 11] [3 0] 2 0
r 1.333035082 _0_ AGT  --- 7 ack 40 [13a 0 b 800] ------- [4:0 0:0 27 0] [2 0] 4 0
s 1.333035082 _0_ AGT  --- 10 tcp 1540 [0 0 0 0] ------- [0:0 4:0 32 0] [5 0] 0 0
r 1.333035082 _0_ RTR  --- 10 tcp 1540 [0 0 0 0] ------- [0:0 4:0 32 0] [5 0] 0 0
s 1.333035082 _0_ AGT  --- 11 tcp 1540 [0 0 0 0] ------- [0:0 4:0 32 0] [6 0] 0 0
r 1.333035082 _0_ RTR  --- 11 tcp 1540 [0 0 0 0] ------- [0:0 4:0 32 0] [6 0] 0 0
s 1.333035082 _0_ RTR  --- 10 tcp 1540 [0 0 0 0] ------- [0:0 4:0 30 11] [5 0] 0 0
s 1.333035082 _0_ RTR  --- 11 tcp 1540 [0 0 0 0] ------- [0:0 4:0 30 11] [6 0] 0 0
r 1.336139155 _11_ RTR  --- 8 ack 40 [13a b 3 800] ------- [4:0 0:0 28 11] [3 0] 3 0
f 1.336139155 _11_ RTR  --- 8 ack 40 [13a b 3 800] ------- [4:0 0:0 27 0] [3 0] 3 0
r 1.350135638 _11_ RTR  --- 10 tcp 1540 [13a b 0 800] ------- [0:0 4:0 30 11] [5 0] 1 0
f 1.350135638 _11_ RTR  --- 10 tcp 1540 [13a b 0 800] ------- [0:0 4:0 29 3] [5 0] 1 0
r 1.352041766 _0_ AGT  --- 8 ack 40 [13a 0 b 800] ------- [4:0 0:0 27 0] [3 0] 4 0
s 1.352041766 _0_ AGT  --- 12 tcp 1540 [0 0 0 0] ------- [0:0 4:0 32 0] [7 0] 0 0
r 1.352041766 _0_ RTR  --- 12 tcp 1540 [0 0 0 0] ------- [0:0 4:0 32 0] [7 0] 0 0
s 1.352041766 _0_ AGT  --- 13 tcp 1540 [0 0 0 0] ------- [0:0 4:0 32 0] [8 0] 0 0
r 1.352041766 _0_ RTR  --- 13 tcp 1540 [0 0 0 0] ------- [0:0 4:0 32 0] [8 0] 0 0
s 1.352041766 _0_ RTR  --- 12 tcp 1540 [0 0 0 0] ------- [0:0 4:0 30 11] [7 0] 0 0
s 1.352041766 _0_ RTR  --- 13 tcp 1540 [0 0 0 0] ------- [0:0 4:0 30 11] [8 0] 0 0
r 1.365868469 _3_ RTR  --- 10 tcp 1540 [13a 3 b 800] ------- [0:0 4:0 29 3] [5 0] 2 0
f 1.365868469 _3_ RTR  --- 10 tcp 1540 [13a 3 b 800] ------- [0:0 4:0 28 24] [5 0] 2 0
r 1.379834894 _24_ RTR  --- 10 tcp 1540 [13a 18 3 800] ------- [0:0 4:0 28 24] [5 0] 3 0
f 1.379834894 _24_ RTR  --- 10 tcp 1540 [13a 18 3 800] ------- [0:0 4:0 27 4] [5 0] 3 0
r 1.393980290 _4_ AGT  --- 10 tcp 1540 [13a 4 18 800] ------- [0:0 4:0 27 4] [5 0] 4 0
s 1.393980290 _4_ AGT  --- 14 ack 40 [0 0 0 0] ------- [4:0 0:0 32 0] [5 0] 0 0
r 1.393980290 _4_ RTR  --- 14 ack 40 [0 0 0 0] ------- [4:0 0:0 32 0] [5 0] 0 0
s 1.393980290 _4_ RTR  --- 14 ack 40 [0 0 0 0] ------- [4:0 0:0 30 24] [5 0] 0 0
r 1.408397672 _11_ RTR  --- 11 tcp 1540 [13a b 0 800] ------- [0:0 4:0 30 11] [6 0] 1 0
f 1.408397672 _11_ RTR  --- 11 tcp 1540 [13a b 0 800] ------- [0:0 4:0 29 3] [6 0] 1 0
r 1.422423668 _3_ RTR  --- 11 tcp 1540 [13a 3 b 800] ------- [0:0 4:0 29 3] [6 0] 2 0
f 1.422423668 _3_ RTR  --- 11 tcp 1540 [13a 3 b 800] ------- [0:0 4:0 28 24] [6 0] 2 0
r 1.436650092 _24_ RTR  --- 11 tcp 1540 [13a 18 3 800] ------- [0:0 4:0 28 24] [6 0] 3 0
f 1.436650092 _24_ RTR  --- 11 tcp 1540 [13a 18 3 800] ------- [0:0 4:0 27 4] [6 0] 3 0
r 1.450935488 _4_ AGT  --- 11 tcp 1540 [13a 4 18 800] ------- [0:0 4:0 27 4] [6 0] 4 0
s 1.450935488 _4_ AGT  --- 15 ack 40 [0 0 0 0] ------- [4:0 0:0 32 0] [6 0] 0 0
r 1.450935488 _4_ RTR  --- 15 ack 40 [0 0 0 0] ------- [4:0 0:0 32 0] [6 0] 0 0
s 1.450935488 _4_ RTR  --- 15 ack 40 [0 0 0 0] ------- [4:0 0:0 30 24] [6 0] 0 0
D 1.457897966 _4_ RTR  CBK 9 ack 40 [13a 18 4 800] ------- [4:0 0:0 30 24] [4 0] 0 0
D 1.457897966 _4_ RTR  CBK 14 ack 40 [0 18 4 800] ------- [4:0 0:0 30 24] [5 0] 0 0
D 1.457897966 _4_ RTR  CBK 15 ack 40 [0 18 4 800] ------- [4:0 0:0 30 24] [6 0] 0 0
s 1.457897966 _4_ RTR  --- 0 AODV 32 [0 0 0 0] ------- [4:255 -1:255 1 0] [0x8 1 [0 0] 0.000000] (ERROR)
r 1.458798237 _5_ RTR  --- 0 AODV 32 [0 ffffffff 4 800] ------- [4:255 -1:255 1 0] [0x8 1 [0 0] 0.000000] (ERROR)
r 1.458798285 _2_ RTR  --- 0 AODV 32 [0 ffffffff 4 800] ------- [4:255 -1:255 1 0] [0x8 1 [0 0] 0.000000] (ERROR)
r 1.458798323 _14_ RTR  --- 0 AODV 32 [0 ffffffff 4 800] ------- [4:255 -1:255 1 0] [0x8 1 [0 0] 0.000000] (ERROR)
r 1.458798551 _13_ RTR  --- 0 AODV 32 [0 ffffffff 4 800] ------- [4:255 -1:255 1 0] [0x8 1 [0 0] 0.000000] (ERROR)
r 1.464832867 _11_ RTR  --- 12 tcp 1540 [13a b 0 800] ------- [0:0 4:0 30 11] [7 0] 1 0
f 1.464832867 _11_ RTR  --- 12 tcp 1540 [13a b 0 800] ------- [0:0 4:0 29 3] [7 0] 1 0
r 1.478999699 _11_ RTR  --- 13 tcp 1540 [13a b 0 800] ------- [0:0 4:0 30 11] [8 0] 1 0
f 1.478999699 _11_ RTR  --- 13 tcp 1540 [13a b 0 800] ------- [0:0 4:0 29 3] [8 0] 1 0
r 1.492945698 _3_ RTR  --- 12 tcp 1540 [13a 3 b 800] ------- [0:0 4:0 29 3] [7 0] 2 0
f 1.492945698 _3_ RTR  --- 12 tcp 1540 [13a 3 b 800] ------- [0:0 4:0 28 24] [7 0] 2 0
r 1.506872364 _3_ RTR  --- 13 tcp 1540 [13a 3 b 800] ------- [0:0 4:0 29 3] [8 0] 2 0
f 1.506872364 _3_ RTR  --- 13 tcp 1540 [13a 3 b 800] ------- [0:0 4:0 28 24] [8 0] 2 0
r 1.520958788 _24_ RTR  --- 12 tcp 1540 [13a 18 3 800] ------- [0:0 4:0 28 24] [7 0] 3 0
f 1.520958788 _24_ RTR  --- 12 tcp 1540 [13a 18 3 800] ------- [0:0 4:0 27 4] [7 0] 3 0
r 1.534826019 _24_ RTR  --- 13 tcp 1540 [13a 18 3 800] ------- [0:0 4:0 28 24] [8 0] 3 0
f 1.534826019 _24_ RTR  --- 13 tcp 1540 [13a 18 3 800] ------- [0:0 4:0 27 4] [8 0] 3 0
r 1.549131413 _4_ AGT  --- 12 tcp 1540 [13a 4 18 800] ------- [0:0 4:0 27 4] [7 0] 4 0
s 1.549131413 _4_ AGT  --- 16 ack 40 [0 0 0 0] ------- [4:0 0:0 32 0] [7 0] 0 0
r 1.549131413 _4_ RTR  --- 16 ack 40 [0 0 0 0] ------- [4:0 0:0 32 0] [7 0] 0 0
s 1.549131413 _4_ RTR  --- 0 AODV 48 [0 0 0 0] ------- [4:255 -1:255 6 0] [0x2 1 1 [0 5] [4 8]] (REQUEST)
r 1.563017271 _4_ AGT  --- 13 tcp 1540 [13a 4 18 800] ------- [0:0 4:0 27 4] [8 0] 4 0
s 1.563017271 _4_ AGT  --- 17 ack 40 [0 0 0 0] ------- [4:0 0:0 32 0] [8 0] 0 0
r 1.563017271 _4_ RTR  --- 17 ack 40 [0 0 0 0] ------- [4:0 0:0 32 0] [8 0] 0 0
r 1.564629543 _5_ RTR  --- 0 AODV 48 [0 ffffffff 4 800] ------- [4:255 -1:255 6 0] [0x2 1 1 [0 5] [4 8]] (REQUEST)
r 1.564629591 _2_ RTR  --- 0 AODV 48 [0 ffffffff 4 800] ------- [4:255 -1:255 6 0] [0x2 1 1 [0 5] [4 8]] (REQUEST)
r 1.564629629 _14_ RTR  --- 0 AODV 48 [0 ffffffff 4 800] ------- [4:255 -1:255 6 0] [0x2 1 1 [0 5] [4 8]] (REQUEST)
r 1.564629736 _24_ RTR  --- 0 AODV 48 [0 ffffffff 4 800] ------- [4:255 -1:255 6 0] [0x2 1 1 [0 5] [4 8]] (REQUEST)
r 1.564629859 _13_ RTR  --- 0 AODV 48 [0 ffffffff 4 800] ------- [4:255 -1:255 6 0] [0x2 1 1 [0 5] [4 8]] (REQUEST)
s 1.564828935 _2_ RTR  --- 0 AODV 48 [0 ffffffff 4 800] ------- [2:255 -1:255 5 0] [0x2 2 1 [0 5] [4 8]] (REQUEST)
r 1.565937176 _24_ RTR  --- 0 AODV 48 [0 ffffffff 2 800] ------- [2:255 -1:255 5 0] [0x2 2 1 [0 5] [4 8]] (REQUEST)
r 1.565937240 _5_ RTR  --- 0 AODV 48 [0 ffffffff 2 800] ------- [2:255 -1:255 5 0] [0x2 2 1 [0 5] [4 8]] (REQUEST)
r 1.565937255 _4_ RTR  --- 0 AODV 48 [0 ffffffff 2 800] ------- [2:255 -1:255 5 0] [0x2 2 1 [0 5] [4 8]] (REQUEST)