n -t * -s 0  -x 805 -y 466 -Z 0 -z 25  -v circle -c black
n -t * -s 1  -x 218 -y 337 -Z 0 -z 25  -v circle -c black
n -t * -s 2  -x 253 -y 575 -Z 0 -z 25  -v circle -c black
n -t * -s 3  -x 552 -y 642 -Z 0 -z 25  -v circle -c black
n -t * -s 4  -x 170 -y 620 -Z 0 -z 25  -v circle -c black
n -t * -s 5  -x 237 -y 666 -Z 0 -z 25  -v circle -c black
n -t * -s 6  -x 982 -y 601 -Z 0 -z 25  -v circle -c black
n -t * -s 7  -x 448 -y 669 -Z 0 -z 25  -v circle -c black
n -t * -s 8  -x 569 -y 132 -Z 0 -z 25  -v circle -c black
n -t * -s 9  -x 178 -y 955 -Z 0 -z 25  -v circle -c black
n -t * -s 10  -x 949 -y 302 -Z 0 -z 25  -v circle -c black
n -t * -s 11  -x 592 -y 448 -Z 0 -z 25  -v circle -c black
n -t * -s 12  -x 346 -y 386 -Z 0 -z 25  -v circle -c black
n -t * -s 13  -x 217 -y 454 -Z 0 -z 25  -v circle -c black
n -t * -s 14  -x 162 -y 727 -Z 0 -z 25  -v circle -c black
n -t * -s 15  -x 457 -y 100 -Z 0 -z 25  -v circle -c black
n -t * -s 16  -x 469 -y 321 -Z 0 -z 25  -v circle -c black
n -t * -s 17  -x 280 -y 122 -Z 0 -z 25  -v circle -c black
n -t * -s 18  -x 818 -y 765 -Z 0 -z 25  -v circle -c black
n -t * -s 19  -x 794 -y 55 -Z 0 -z 25  -v circle -c black
n -t * -s 20  -x 952 -y 599 -Z 0 -z 25  -v circle -c black
n -t * -s 21  -x 961 -y 219 -Z 0 -z 25  -v circle -c black
n -t * -s 22  -x 578 -y 546 -Z 0 -z 25  -v circle -c black
n -t * -s 23  -x 30 -y 222 -Z 0 -z 25  -v circle -c black
n -t * -s 24  -x 310 -y 622 -Z 0 -z 25  -v circle -c black
V -t * -v 1.0a5 -a 0
W -t * -x 1000 -y 1000
A -t * -n 1 -p 0 -o 0x7fffffff -c 30 -a 1
A -t * -h 1 -m 1073741823 -s 0
n -t 1.000000 -s 0 -x 805.000000 -y 466.000000 -U -6.487498 -V 6.237978 -T 48.092503
n -t 1.000000 -s 1 -x 218.000000 -y 337.000000 -U -1.714173 -V 9.851985 -T 55.420303
n -t 1.000000 -s 2 -x 253.000000 -y 575.000000 -U 3.941967 -V -0.678894 -T 136.987454
n -t 1.000000 -s 3 -x 552.000000 -y 642.000000 -U -1.549523 -V 1.264507 -T 249.108912
n -t 1.000000 -s 4 -x 170.000000 -y 620.000000 -U 0.622789 -V -0.782390 -T 576.439069
n -t 1.000000 -s 5 -x 237.000000 -y 666.000000 -U 2.158149 -V -2.083841 -T 309.524546
n -t 1.000000 -s 6 -x 982.000000 -y 601.000000 -U -9.993344 -V -0.364801 -T 90.460212
n -t 1.000000 -s 7 -x 448.000000 -y 669.000000 -U -1.092665 -V -1.675137 -T 235.204698
n -t 1.000000 -s 8 -x 569.000000 -y 132.000000 -U -3.435687 -V 3.632637 -T 137.090481
n -t 1.000000 -s 9 -x 178.000000 -y 955.000000 -U 4.015499 -V -8.054549 -T 84.920951
n -t 1.000000 -s 10 -x 949.000000 -y 302.000000 -U -1.967984 -V -0.356427 -T 392.787793
n -t 1.000000 -s 11 -x 592.000000 -y 448.000000 -U -2.797373 -V -2.859144 -T 113.320618
n -t 1.000000 -s 12 -x 346.000000 -y 386.000000 -U 3.324366 -V -3.734781 -T 48.731099
n -t 1.000000 -s 13 -x 217.000000 -y 454.000000 -U 3.546153 -V -7.171109 -T 12.689809
n -t 1.000000 -s 14 -x 162.000000 -y 727.000000 -U 1.831635 -V -0.803189 -T 439.498009
n -t 1.000000 -s 15 -x 457.000000 -y 100.000000 -U 0.999138 -V -0.041507 -T 337.290676
n -t 1.000000 -s 16 -x 469.000000 -y 321.000000 -U 2.196295 -V 3.343095 -T 143.878638
n -t 1.000000 -s 17 -x 280.000000 -y 122.000000 -U -8.739134 -V -2.151171 -T 29.751232
n -t 1.000000 -s 18 -x 818.000000 -y 765.000000 -U -0.000000 -V 0.000000 -T 0.000000
n -t 1.000000 -s 19 -x 794.000000 -y 55.000000 -U 1.110069 -V 4.875218 -T 154.044409
n -t 1.000000 -s 20 -x 952.000000 -y 599.000000 -U -3.962052 -V -0.549674 -T 227.407399
n -t 1.000000 -s 21 -x 961.000000 -y 219.000000 -U -1.867223 -V -0.716573 -T 145.135282
n -t 1.000000 -s 22 -x 578.000000 -y 546.000000 -U -2.207924 -V -2.031028 -T 152.632092
n -t 1.000000 -s 23 -x 30.000000 -y 222.000000 -U 0.000000 -V -0.000000 -T 0.000000
n -t 1.000000 -s 24 -x 310.000000 -y 622.000000 -U -0.557079 -V 0.830460 -T 387.737024
+ -t 1.000000000 -s 0 -d -1 -p tcp -e 40 -c 2 -a 0 -i 0 -k AGT 
- -t 1.000000000 -s 0 -d -1 -p tcp -e 40 -c 2 -a 0 -i 0 -k AGT
h -t 1.000000000 -s 0 -d -1 -p tcp -e 40 -c 2 -a 0 -i 0 -k AGT
+ -t 1.000000000 -s 0 -d -1 -p AODV -e 48 -c 2 -a 0 -i 0 -k RTR 
- -t 1.000000000 -s 0 -d -1 -p AODV -e 48 -c 2 -a 0 -i 0 -k RTR
h -t 1.000000000 -s 0 -d -1 -p AODV -e 48 -c 2 -a 0 -i 0 -k RTR
r -t 1.000988661 -s 20 -d -1 -p AODV -e 48 -c 2 -a 0 -i 0 -k RTR
r -t 1.000988713 -s 11 -d -1 -p AODV -e 48 -c 2 -a 0 -i 0 -k RTR
r -t 1.000988727 -s 10 -d -1 -p AODV -e 48 -c 2 -a 0 -i 0 -k RTR
r -t 1.000988742 -s 6 -d -1 -p AODV -e 48 -c 2 -a 0 -i 0 -k RTR
r -t 1.000988802 -s 22 -d -1 -p AODV -e 48 -c 2 -a 0 -i 0 -k RTR
+ -t 1.001869888 -s 20 -d -1 -p AODV -e 48 -c 2 -a 0 -i 0 -k RTR 
- -t 1.001869888 -s 20 -d -1 -p AODV -e 48 -c 2 -a 0 -i 0 -k RTR
h -t 1.001869888 -s 20 -d -1 -p AODV -e 48 -c 2 -a 0 -i 0 -k RTR
r -t 1.003057988 -s 6 -d -1 -p AODV -e 48 -c 2 -a 0 -i 0 -k RTR
r -t 1.003058548 -s 0 -d -1 -p AODV -e 48 -c 2 -a 0 -i 0 -k RTR
r -t 1.003058599 -s 18 -d -1 -p AODV -e 48 -c 2 -a 0 -i 0 -k RTR
+ -t 1.004118360 -s 6 -d -1 -p AODV -e 48 -c 2 -a 0 -i 0 -k RTR 
- -t 1.004118360 -s 6 -d -1 -p AODV -e 48 -c 2 -a 0 -i 0 -k RTR
h -t 1.004118360 -s 6 -d -1 -p AODV -e 48 -c 2 -a 0 -i 0 -k RTR
r -t 1.005306460 -s 20 -d -1 -p AODV -e 48 -c 2 -a 0 -i 0 -k RTR
r -t 1.005307102 -s 0 -d -1 -p AODV -e 48 -c 2 -a 0 -i 0 -k RTR
r -t 1.005307133 -s 18 -d -1 -p AODV -e 48 -c 2 -a 0 -i 0 -k RTR
+ -t 1.005400446 -s 11 -d -1 -p AODV -e 48 -c 2 -a 0 -i 0 -k RTR 
- -t 1.005400446 -s 11 -d -1 -p AODV -e 48 -c 2 -a 0 -i 0 -k RTR
h -t 1.005400446 -s 11 -d -1 -p AODV -e 48 -c 2 -a 0 -i 0 -k RTR
+ -t 1.006149389 -s 18 -d -1 -p AODV -e 48 -c 2 -a 0 -i 0 -k RTR 
- -t 1.006149389 -s 18 -d -1 -p AODV -e 48 -c 2 -a 0 -i 0 -k RTR
h -t 1.006149389 -s 18 -d -1 -p AODV -e 48 -c 2 -a 0 -i 0 -k RTR
r -t 1.007110086 -s 22 -d -1 -p AODV -e 48 -c 2 -a 0 -i 0 -k RTR
r -t 1.007110345 -s 16 -d -1 -p AODV -e 48 -c 2 -a 0 -i 0 -k RTR
r -t 1.007110416 -s 3 -d -1 -p AODV -e 48 -c 2 -a 0 -i 0 -k RTR
r -t 1.007110469 -s 0 -d -1 -p AODV -e 48 -c 2 -a 0 -i 0 -k RTR
r -t 1.008533765 -s 20 -d -1 -p AODV -e 48 -c 2 -a 0 -i 0 -k RTR
r -t 1.008533827 -s 6 -d -1 -p AODV -e 48 -c 2 -a 0 -i 0 -k RTR
+ -t 1.008980282 -s 10 -d -1 -p AODV -e 48 -c 2 -a 0 -i 0 -k RTR 
- -t 1.008980282 -s 10 -d -1 -p AODV -e 48 -c 2 -a 0 -i 0 -k RTR
h -t 1.008980282 -s 10 -d -1 -p AODV -e 48 -c 2 -a 0 -i 0 -k RTR
+ -t 1.009153563 -s 22 -d -1 -p AODV -e 48 -c 2 -a 0 -i 0 -k RTR 
- -t 1.009153563 -s 22 -d -1 -p AODV -e 48 -c 2 -a 0 -i 0 -k RTR
h -t 1.009153563 -s 22 -d -1 -p AODV -e 48 -c 2 -a 0 -i 0 -k RTR
r -t 1.010268562 -s 21 -d -1 -p AODV -e 48 -c 2 -a 0 -i 0 -k RTR
r -t 1.010269010 -s 0 -d -1 -p AODV -e 48 -c 2 -a 0 -i 0 -k RTR
+ -t 1.011346984 -s 3 -d -1 -p AODV -e 48 -c 2 -a 0 -i 0 -k RTR 
- -t 1.011346984 -s 3 -d -1 -p AODV -e 48 -c 2 -a 0 -i 0 -k RTR
h -t 1.011346984 -s 3 -d -1 -p AODV -e 48 -c 2 -a 0 -i 0 -k RTR
r -t 1.011692092 -s 11 -d -1 -p AODV -e 48 -c 2 -a 0 -i 0 -k RTR
r -t 1.011692094 -s 3 -d -1 -p AODV -e 48 -c 2 -a 0 -i 0 -k RTR
r -t 1.011692359 -s 7 -d -1 -p AODV -e 48 -c 2 -a 0 -i 0 -k RTR
r -t 1.011692564 -s 0 -d -1 -p AODV -e 48 -c 2 -a 0 -i 0 -k RTR
r -t 1.011692595 -s 16 -d -1 -p AODV -e 48 -c 2 -a 0 -i 0 -k RTR
r -t 1.012610425 -s 22 -d -1 -p AODV -e 48 -c 2 -a 0 -i 0 -k RTR
r -t 1.012610452 -s 7 -d -1 -p AODV -e 48 -c 2 -a 0 -i 0 -k RTR
r -t 1.012610754 -s 11 -d -1 -p AODV -e 48 -c 2 -a 0 -i 0 -k RTR
r -t 1.012610903 -s 24 -d -1 -p AODV -e 48 -c 2 -a 0 -i 0 -k RTR
+ -t 1.012849441 -s 21 -d -1 -p AODV -e 48 -c 2 -a 0 -i 0 -k RTR 
- -t 1.012849441 -s 21 -d -1 -p AODV -e 48 -c 2 -a 0 -i 0 -k RTR
h -t 1.012849441 -s 21 -d -1 -p AODV -e 48 -c 2 -a 0 -i 0 -k RTR
r -t 1.014197721 -s 10 -d -1 -p AODV -e 48 -c 2 -a 0 -i 0 -k RTR
r -t 1.014198221 -s 19 -d -1 -p AODV -e 48 -c 2 -a 0 -i 0 -k RTR
+ -t 1.015707622 -s 16 -d -1 -p AODV -e 48 -c 2 -a 0 -i 0 -k RTR 
- -t 1.015707622 -s 16 -d -1 -p AODV -e 48 -c 2 -a 0 -i 0 -k RTR
h -t 1.015707622 -s 16 -d -1 -p AODV -e 48 -c 2 -a 0 -i 0 -k RTR
+ -t 1.016353518 -s 7 -d -1 -p AODV -e 48 -c 2 -a 0 -i 0 -k RTR 
- -t 1.016353518 -s 7 -d -1 -p AODV -e 48 -c 2 -a 0 -i 0 -k RTR
h -t 1.016353518 -s 7 -d -1 -p AODV -e 48 -c 2 -a 0 -i 0 -k RTR
+ -t 1.016610477 -s 19 -d -1 -p AODV -e 48 -c 2 -a 0 -i 0 -k RTR 
- -t 1.016610477 -s 19 -d -1 -p AODV -e 48 -c 2 -a 0 -i 0 -k RTR
h -t 1.016610477 -s 19 -d -1 -p AODV -e 48 -c 2 -a 0 -i 0 -k RTR
r -t 1.016696086 -s 12 -d -1 -p AODV -e 48 -c 2 -a 0 -i 0 -k RTR
r -t 1.016696211 -s 11 -d -1 -p AODV -e 48 -c 2 -a 0 -i 0 -k RTR
r -t 1.016696335 -s 8 -d -1 -p AODV -e 48 -c 2 -a 0 -i 0 -k RTR
r -t 1.016696360 -s 15 -d -1 -p AODV -e 48 -c 2 -a 0 -i 0 -k RTR
r -t 1.016696455 -s 22 -d -1 -p AODV -e 48 -c 2 -a 0 -i 0 -k RTR
+ -t 1.017788320 -s 8 -d -1 -p AODV -e 48 -c 2 -a 0 -i 0 -k RTR 
- -t 1.017788320 -s 8 -d -1 -p AODV -e 48 -c 2 -a 0 -i 0 -k RTR
h -t 1.017788320 -s 8 -d -1 -p AODV -e 48 -c 2 -a 0 -i 0 -k RTR
r -t 1.018259142 -s 3 -d -1 -p AODV -e 48 -c 2 -a 0 -i 0 -k RTR
r -t 1.018259270 -s 24 -d -1 -p AODV -e 48 -c 2 -a 0 -i 0 -k RTR
r -t 1.018259381 -s 22 -d -1 -p AODV -e 48 -c 2 -a 0 -i 0 -k RTR
r -t 1.018259487 -s 5 -d -1 -p AODV -e 48 -c 2 -a 0 -i 0 -k RTR
r -t 1.018259505 -s 2 -d -1 -p AODV -e 48 -c 2 -a 0 -i 0 -k RTR
r -t 1.018319802 -s 21 -d -1 -p AODV -e 48 -c 2 -a 0 -i 0 -k RTR
r -t 1.018319815 -s 8 -d -1 -p AODV -e 48 -c 2 -a 0 -i 0 -k RTR
r -t 1.019318203 -s 15 -d -1 -p AODV -e 48 -c 2 -a 0 -i 0 -k RTR
r -t 1.019318528 -s 16 -d -1 -p AODV -e 48 -c 2 -a 0 -i 0 -k RTR
r -t 1.019318608 -s 19 -d -1 -p AODV -e 48 -c 2 -a 0 -i 0 -k RTR
+ -t 1.020738435 -s 15 -d -1 -p AODV -e 48 -c 2 -a 0 -i 0 -k RTR 
- -t 1.020738435 -s 15 -d -1 -p AODV -e 48 -c 2 -a 0 -i 0 -k RTR
h -t 1.020738435 -s 15 -d -1 -p AODV -e 48 -c 2 -a 0 -i 0 -k RTR
+ -t 1.020751277 -s 12 -d -1 -p AODV -e 48 -c 2 -a 0 -i 0 -k RTR 
- -t 1.020751277 -s 12 -d -1 -p AODV -e 48 -c 2 -a 0 -i 0 -k RTR
h -t 1.020751277 -s 12 -d -1 -p AODV -e 48 -c 2 -a 0 -i 0 -k RTR
+ -t 1.021231576 -s 24 -d -1 -p AODV -e 48 -c 2 -a 0 -i 0 -k RTR 
- -t 1.021231576 -s 24 -d -1 -p AODV -e 48 -c 2 -a 0 -i 0 -k RTR
h -t 1.021231576 -s 24 -d -1 -p AODV -e 48 -c 2 -a 0 -i 0 -k RTR
r -t 1.021806824 -s 8 -d -1 -p AODV -e 48 -c 2 -a 0 -i 0 -k RTR
r -t 1.021807031 -s 17 -d -1 -p AODV -e 48 -c 2 -a 0 -i 0 -k RTR
r -t 1.021807173 -s 16 -d -1 -p AODV -e 48 -c 2 -a 0 -i 0 -k RTR
r -t 1.023309915 -s 1 -d -1 -p AODV -e 48 -c 2 -a 0 -i 0 -k RTR
r -t 1.023309921 -s 16 -d -1 -p AODV -e 48 -c 2 -a 0 -i 0 -k RTR
r -t 1.023309944 -s 13 -d -1 -p AODV -e 48 -c 2 -a 0 -i 0 -k RTR
r -t 1.023310160 -s 2 -d -1 -p AODV -e 48 -c 2 -a 0 -i 0 -k RTR
r -t 1.023310254 -s 24 -d -1 -p AODV -e 48 -c 2 -a 0 -i 0 -k RTR
r -t 1.024468500 -s 2 -d -1 -p AODV -e 48 -c 2 -a 0 -i 0 -k RTR
r -t 1.024468538 -s 5 -d -1 -p AODV -e 48 -c 2 -a 0 -i 0 -k RTR
r -t 1.024468721 -s 4 -d -1 -p AODV -e 48 -c 2 -a 0 -i 0 -k RTR
+ -t 1.024468721 -s 4 -d 24 -p AODV -e 44 -c 2 -a 0 -i 0 -k RTR 
- -t 1.024468721 -s 4 -d 24 -p AODV -e 44 -c 2 -a 0 -i 0 -k RTR
h -t 1.024468721 -s 4 -d 24 -p AODV -e 44 -c 2 -a 0 -i 0 -k RTR
r -t 1.024468740 -s 7 -d -1 -p AODV -e 48 -c 2 -a 0 -i 0 -k RTR
r -t 1.024468859 -s 14 -d -1 -p AODV -e 48 -c 2 -a 0 -i 0 -k RTR
r -t 1.024468894 -s 13 -d -1 -p AODV -e 48 -c 2 -a 0 -i 0 -k RTR
r -t 1.024469050 -s 12 -d -1 -p AODV -e 48 -c 2 -a 0 -i 0 -k RTR
r -t 1.024469063 -s 3 -d -1 -p AODV -e 48 -c 2 -a 0 -i 0 -k RTR
+ -t 1.027087100 -s 14 -d -1 -p AODV -e 48 -c 2 -a 0 -i 0 -k RTR 
- -t 1.027087100 -s 14 -d -1 -p AODV -e 48 -c 2 -a 0 -i 0 -k RTR
h -t 1.027087100 -s 14 -d -1 -p AODV -e 48 -c 2 -a 0 -i 0 -k RTR
+ -t 1.027172984 -s 2 -d -1 -p AODV -e 48 -c 2 -a 0 -i 0 -k RTR 
- -t 1.027172984 -s 2 -d -1 -p AODV -e 48 -c 2 -a 0 -i 0 -k RTR
h -t 1.027172984 -s 2 -d -1 -p AODV -e 48 -c 2 -a 0 -i 0 -k RTR
+ -t 1.027722137 -s 5 -d -1 -p AODV -e 48 -c 2 -a 0 -i 0 -k RTR 
- -t 1.027722137 -s 5 -d -1 -p AODV -e 48 -c 2 -a 0 -i 0 -k RTR
h -t 1.027722137 -s 5 -d -1 -p AODV -e 48 -c 2 -a 0 -i 0 -k RTR
r -t 1.028121230 -s 24 -d -1 -p AODV -e 48 -c 2 -a 0 -i 0 -k RTR
r -t 1.028121292 -s 5 -d -1 -p AODV -e 48 -c 2 -a 0 -i 0 -k RTR
r -t 1.028121299 -s 4 -d -1 -p AODV -e 48 -c 2 -a 0 -i 0 -k RTR
r -t 1.028121405 -s 13 -d -1 -p AODV -e 48 -c 2 -a 0 -i 0 -k RTR
r -t 1.028121574 -s 14 -d -1 -p AODV -e 48 -c 2 -a 0 -i 0 -k RTR
r -t 1.028121686 -s 12 -d -1 -p AODV -e 48 -c 2 -a 0 -i 0 -k RTR
r -t 1.028121705 -s 7 -d -1 -p AODV -e 48 -c 2 -a 0 -i 0 -k RTR
r -t 1.028121785 -s 1 -d -1 -p AODV -e 48 -c 2 -a 0 -i 0 -k RTR
+ -t 1.028493270 -s 17 -d -1 -p AODV -e 48 -c 2 -a 0 -i 0 -k RTR 
- -t 1.028493270 -s 17 -d -1 -p AODV -e 48 -c 2 -a 0 -i 0 -k RTR
h -t 1.028493270 -s 17 -d -1 -p AODV -e 48 -c 2 -a 0 -i 0 -k RTR
+ -t 1.028758163 -s 13 -d -1 -p AODV -e 48 -c 2 -a 0 -i 0 -k RTR 
- -t 1.028758163 -s 13 -d -1 -p AODV -e 48 -c 2 -a 0 -i 0 -k RTR
h -t 1.028758163 -s 13 -d -1 -p AODV -e 48 -c 2 -a 0 -i 0 -k RTR
r -t 1.029059897 -s 5 -d -1 -p AODV -e 48 -c 2 -a 0 -i 0 -k RTR
r -t 1.029059932 -s 4 -d -1 -p AODV -e 48 -c 2 -a 0 -i 0 -k RTR
r -t 1.029060165 -s 2 -d -1 -p AODV -e 48 -c 2 -a 0 -i 0 -k RTR
r -t 1.029060179 -s 24 -d -1 -p AODV -e 48 -c 2 -a 0 -i 0 -k RTR
r -t 1.029060335 -s 9 -d -1 -p AODV -e 48 -c 2 -a 0 -i 0 -k RTR
r -t 1.029721865 -s 15 -d -1 -p AODV -e 48 -c 2 -a 0 -i 0 -k RTR
+ -t 1.030296647 -s 1 -d -1 -p AODV -e 48 -c 2 -a 0 -i 0 -k RTR 
- -t 1.030296647 -s 1 -d -1 -p AODV -e 48 -c 2 -a 0 -i 0 -k RTR
h -t 1.030296647 -s 1 -d -1 -p AODV -e 48 -c 2 -a 0 -i 0 -k RTR
+ -t 1.030847614 -s 9 -d -1 -p AODV -e 48 -c 2 -a 0 -i 0 -k RTR 
- -t 1.030847614 -s 9 -d -1 -p AODV -e 48 -c 2 -a 0 -i 0 -k RTR
h -t 1.030847614 -s 9 -d -1 -p AODV -e 48 -c 2 -a 0 -i 0 -k RTR
r -t 1.031004784 -s 1 -d -1 -p AODV -e 48 -c 2 -a 0 -i 0 -k RTR
r -t 1.031004817 -s 2 -d -1 -p AODV -e 48 -c 2 -a 0 -i 0 -k RTR
r -t 1.031004881 -s 12 -d -1 -p AODV -e 48 -c 2 -a 0 -i 0 -k RTR
r -t 1.031004971 -s 4 -d -1 -p AODV -e 48 -c 2 -a 0 -i 0 -k RTR
r -t 1.031005036 -s 24 -d -1 -p AODV -e 48 -c 2 -a 0 -i 0 -k RTR
r -t 1.031005106 -s 5 -d -1 -p AODV -e 48 -c 2 -a 0 -i 0 -k RTR
+ -t 1.032628371 -s 24 -d 3 -p AODV -e 44 -c 2 -a 0 -i 0 -k RTR 
- -t 1.032628371 -s 24 -d 3 -p AODV -e 44 -c 2 -a 0 -i 0 -k RTR
h -t 1.032628371 -s 24 -d 3 -p AODV -e 44 -c 2 -a 0 -i 0 -k RTR
r -t 1.033940926 -s 4 -d -1 -p AODV -e 48 -c 2 -a 0 -i 0 -k RTR
r -t 1.033940938 -s 24 -d -1 -p AODV -e 48 -c 2 -a 0 -i 0 -k RTR
r -t 1.033940962 -s 2 -d -1 -p AODV -e 48 -c 2 -a 0 -i 0 -k RTR
r -t 1.033940977 -s 14 -d -1 -p AODV -e 48 -c 2 -a 0 -i 0 -k RTR
r -t 1.033941358 -s 7 -d -1 -p AODV -e 48 -c 2 -a 0 -i 0 -k RTR
r -t 1.033941365 -s 13 -d -1 -p AODV -e 48 -c 2 -a 0 -i 0 -k RTR
+ -t 1.038079603 -s 3 -d 11 -p AODV -e 44 -c 2 -a 0 -i 0 -k RTR 
- -t 1.038079603 -s 3 -d 11 -p AODV -e 44 -c 2 -a 0 -i 0 -k RTR
h -t 1.038079603 -s 3 -d 11 -p AODV -e 44 -c 2 -a 0 -i 0 -k RTR
r -t 1.041622952 -s 13 -d -1 -p AODV -e 48 -c 2 -a 0 -i 0 -k RTR
r -t 1.041623021 -s 12 -d -1 -p AODV -e 48 -c 2 -a 0 -i 0 -k RTR
r -t 1.041623299 -s 23 -d -1 -p AODV -e 48 -c 2 -a 0 -i 0 -k RTR
r -t 1.041623311 -s 17 -d -1 -p AODV -e 48 -c 2 -a 0 -i 0 -k RTR
r -t 1.041623365 -s 2 -d -1 -p AODV -e 48 -c 2 -a 0 -i 0 -k RTR
+ -t 1.045521829 -s 11 -d 0 -p AODV -e 44 -c 2 -a 0 -i 0 -k RTR 
- -t 1.045521829 -s 11 -d 0 -p AODV -e 44 -c 2 -a 0 -i 0 -k RTR
h -t 1.045521829 -s 11 -d 0 -p AODV -e 44 -c 2 -a 0 -i 0 -k RTR
+ -t 1.049643418 -s 23 -d -1 -p AODV -e 48 -c 2 -a 0 -i 0 -k RTR 
- -t 1.049643418 -s 23 -d -1 -p AODV -e 48 -c 2 -a 0 -i 0 -k RTR
h -t 1.049643418 -s 23 -d -1 -p AODV -e 48 -c 2 -a 0 -i 0 -k RTR
+ -t 1.050873813 -s 0 -d 11 -p tcp -e 40 -c 2 -a 0 -i 0 -k RTR 
- -t 1.050873813 -s 0 -d 11 -p tcp -e 40 -c 2 -a 0 -i 0 -k RTR
h -t 1.050873813 -s 0 -d 11 -p tcp -e 40 -c 2 -a 0 -i 0 -k RTR
+ -t 1.052779949 -s 11 -d 3 -p tcp -e 40 -c 2 -a 0 -i 0 -k RTR 
- -t 1.052779949 -s 11 -d 3 -p tcp -e 40 -c 2 -a 0 -i 0 -k RTR
h -t 1.052779949 -s 11 -d 3 -p tcp -e 40 -c 2 -a 0 -i 0 -k RTR
+ -t 1.055185932 -s 3 -d 24 -p tcp -e 40 -c 2 -a 0 -i 0 -k RTR 
- -t 1.055185932 -s 3 -d 24 -p tcp -e 40 -c 2 -a 0 -i 0 -k RTR
h -t 1.055185932 -s 3 -d 24 -p tcp -e 40 -c 2 -a 0 -i 0 -k RTR
+ -t 1.057192360 -s 24 -d 4 -p tcp -e 40 -c 2 -a 0 -i 0 -k RTR 
- -t 1.057192360 -s 24 -d 4 -p tcp -e 40 -c 2 -a 0 -i 0 -k RTR
h -t 1.057192360 -s 24 -d 4 -p tcp -e 40 -c 2 -a 0 -i 0 -k RTR
r -t 1.059457759 -s 4 -d 4 -p tcp -e 40 -c 2 -a 0 -i 0 -k AGT
+ -t 1.059457759 -s 4 -d -1 -p ack -e 40 -c 2 -a 0 -i 1 -k AGT 
- -t 1.059457759 -s 4 -d -1 -p ack -e 40 -c 2 -a 0 -i 1 -k AGT
h -t 1.059457759 -s 4 -d -1 -p ack -e 40 -c 2 -a 0 -i 1 -k AGT
+ -t 1.059457759 -s 4 -d 24 -p ack -e 40 -c 2 -a 0 -i 1 -k RTR 
- -t 1.059457759 -s 4 -d 24 -p ack -e 40 -c 2 -a 0 -i 1 -k RTR
h -t 1.059457759 -s 4 -d 24 -p ack -e 40 -c 2 -a 0 -i 1 -k RTR
+ -t 1.061403159 -s 24 -d 3 -p ack -e 40 -c 2 -a 0 -i 1 -k RTR 
- -t 1.061403159 -s 24 -d 3 -p ack -e 40 -c 2 -a 0 -i 1 -k RTR
h -t 1.061403159 -s 24 -d 3 -p ack -e 40 -c 2 -a 0 -i 1 -k RTR
+ -t 1.063289586 -s 3 -d 11 -p ack -e 40 -c 2 -a 0 -i 1 -k RTR 
- -t 1.063289586 -s 3 -d 11 -p ack -e 40 -c 2 -a 0 -i 1 -k RTR
h -t 1.063289586 -s 3 -d 11 -p ack -e 40 -c 2 -a 0 -i 1 -k RTR
+ -t 1.065115570 -s 11 -d 0 -p ack -e 40 -c 2 -a 0 -i 1 -k RTR 
- -t 1.065115570 -s 11 -d 0 -p ack -e 40 -c 2 -a 0 -i 1 -k RTR
h -t 1.065115570 -s 11 -d 0 -p ack -e 40 -c 2 -a 0 -i 1 -k RTR
r -t 1.067301705 -s 0 -d 0 -p ack -e 40 -c 2 -a 0 -i 1 -k AGT
+ -t 1.067301705 -s 0 -d -1 -p tcp -e 1540 -c 2 -a 0 -i 2 -k AGT 
- -t 1.067301705 -s 0 -d -1 -p tcp -e 1540 -c 2 -a 0 -i 2 -k AGT
h -t 1.067301705 -s 0 -d -1 -p tcp -e 1540 -c 2 -a 0 -i 2 -k AGT
+ -t 1.067301705 -s 0 -d -1 -p tcp -e 1540 -c 2 -a 0 -i 3 -k AGT 
- -t 1.067301705 -s 0 -d -1 -p tcp -e 1540 -c 2 -a 0 -i 3 -k AGT
h -t 1.067301705 -s 0 -d -1 -p tcp -e 1540 -c 2 -a 0 -i 3 -k AGT
+ -t 1.067301705 -s 0 -d 11 -p tcp -e 1540 -c 2 -a 0 -i 2 -k RTR 
- -t 1.067301705 -s 0 -d 11 -p tcp -e 1540 -c 2 -a 0 -i 2 -k RTR
h -t 1.067301705 -s 0 -d 11 -p tcp -e 1540 -c 2 -a 0 -i 2 -k RTR
+ -t 1.067301705 -s 0 -d 11 -p tcp -e 1540 -c 2 -a 0 -i 3 -k RTR 
- -t 1.067301705 -s 0 -d 11 -p tcp -e 1540 -c 2 -a 0 -i 3 -k RTR
h -t 1.067301705 -s 0 -d 11 -p tcp -e 1540 -c 2 -a 0 -i 3 -k RTR
+ -t 1.081547841 -s 11 -d 3 -p tcp -e 1540 -c 2 -a 0 -i 2 -k RTR 
- -t 1.081547841 -s 11 -d 3 -p tcp -e 1540 -c 2 -a 0 -i 2 -k RTR
h -t 1.081547841 -s 11 -d 3 -p tcp -e 1540 -c 2 -a 0 -i 2 -k RTR
+ -t 1.095473825 -s 3 -d 24 -p tcp -e 1540 -c 2 -a 0 -i 2 -k RTR 
- -t 1.095473825 -s 3 -d 24 -p tcp -e 1540 -c 2 -a 0 -i 2 -k RTR
h -t 1.095473825 -s 3 -d 24 -p tcp -e 1540 -c 2 -a 0 -i 2 -k RTR
+ -t 1.109460252 -s 24 -d 4 -p tcp -e 1540 -c 2 -a 0 -i 2 -k RTR 
- -t 1.109460252 -s 24 -d 4 -p tcp -e 1540 -c 2 -a 0 -i 2 -k RTR
h -t 1.109460252 -s 24 -d 4 -p tcp -e 1540 -c 2 -a 0 -i 2 -k RTR
r -t 1.123545651 -s 4 -d 4 -p tcp -e 1540 -c 2 -a 0 -i 2 -k AGT
+ -t 1.123545651 -s 4 -d -1 -p ack -e 40 -c 2 -a 0 -i 4 -k AGT 
- -t 1.123545651 -s 4 -d -1 -p ack -e 40 -c 2 -a 0 -i 4 -k AGT
h -t 1.123545651 -s 4 -d -1 -p ack -e 40 -c 2 -a 0 -i 4 -k AGT
+ -t 1.123545651 -s 4 -d 24 -p ack -e 40 -c 2 -a 0 -i 4 -k RTR 
- -t 1.123545651 -s 4 -d 24 -p ack -e 40 -c 2 -a 0 -i 4 -k RTR
h -t 1.123545651 -s 4 -d 24 -p ack -e 40 -c 2 -a 0 -i 4 -k RTR
+ -t 1.130271050 -s 24 -d 3 -p ack -e 40 -c 2 -a 0 -i 4 -k RTR 
- -t 1.130271050 -s 24 -d 3 -p ack -e 40 -c 2 -a 0 -i 4 -k RTR
h -t 1.130271050 -s 24 -d 3 -p ack -e 40 -c 2 -a 0 -i 4 -k RTR
+ -t 1.132441998 -s 3 -d 11 -p ack -e 40 -c 2 -a 0 -i 4 -k RTR 
- -t 1.132441998 -s 3 -d 11 -p ack -e 40 -c 2 -a 0 -i 4 -k RTR
h -t 1.132441998 -s 3 -d 11 -p ack -e 40 -c 2 -a 0 -i 4 -k RTR
+ -t 1.134647984 -s 11 -d 0 -p ack -e 40 -c 2 -a 0 -i 4 -k RTR 
- -t 1.134647984 -s 11 -d 0 -p ack -e 40 -c 2 -a 0 -i 4 -k RTR
h -t 1.134647984 -s 11 -d 0 -p ack -e 40 -c 2 -a 0 -i 4 -k RTR
r -t 1.136854117 -s 0 -d 0 -p ack -e 40 -c 2 -a 0 -i 4 -k AGT
+ -t 1.136854117 -s 0 -d -1 -p tcp -e 1540 -c 2 -a 0 -i 5 -k AGT 
- -t 1.136854117 -s 0 -d -1 -p tcp -e 1540 -c 2 -a 0 -i 5 -k AGT
h -t 1.136854117 -s 0 -d -1 -p tcp -e 1540 -c 2 -a 0 -i 5 -k AGT
+ -t 1.136854117 -s 0 -d -1 -p tcp -e 1540 -c 2 -a 0 -i 6 -k AGT 
- -t 1.136854117 -s 0 -d -1 -p tcp -e 1540 -c 2 -a 0 -i 6 -k AGT
h -t 1.136854117 -s 0 -d -1 -p tcp -e 1540 -c 2 -a 0 -i 6 -k AGT
+ -t 1.136854117 -s 0 -d 11 -p tcp -e 1540 -c 2 -a 0 -i 5 -k RTR 
- -t 1.136854117 -s 0 -d 11 -p tcp -e 1540 -c 2 -a 0 -i 5 -k RTR
h -t 1.136854117 -s 0 -d 11 -p tcp -e 1540 -c 2 -a 0 -i 5 -k RTR
+ -t 1.136854117 -s 0 -d 11 -p tcp -e 1540 -c 2 -a 0 -i 6 -k RTR 
- -t 1.136854117 -s 0 -d 11 -p tcp -e 1540 -c 2 -a 0 -i 6 -k RTR
h -t 1.136854117 -s 0 -d 11 -p tcp -e 1540 -c 2 -a 0 -i 6 -k RTR
+ -t 1.158080251 -s 11 -d 3 -p tcp -e 1540 -c 2 -a 0 -i 3 -k RTR 
- -t 1.158080251 -s 11 -d 3 -p tcp -e 1540 -c 2 -a 0 -i 3 -k RTR
h -t 1.158080251 -s 11 -d 3 -p tcp -e 1540 -c 2 -a 0 -i 3 -k RTR
+ -t 1.172086238 -s 3 -d 24 -p tcp -e 1540 -c 2 -a 0 -i 3 -k RTR 
- -t 1.172086238 -s 3 -d 24 -p tcp -e 1540 -c 2 -a 0 -i 3 -k RTR
h -t 1.172086238 -s 3 -d 24 -p tcp -e 1540 -c 2 -a 0 -i 3 -k RTR
+ -t 1.186092664 -s 24 -d 4 -p tcp -e 1540 -c 2 -a 0 -i 3 -k RTR 
- -t 1.186092664 -s 24 -d 4 -p tcp -e 1540 -c 2 -a 0 -i 3 -k RTR
h -t 1.186092664 -s 24 -d 4 -p tcp -e 1540 -c 2 -a 0 -i 3 -k RTR
r -t 1.200158062 -s 4 -d 4 -p tcp -e 1540 -c 2 -a 0 -i 3 -k AGT
+ -t 1.200158062 -s 4 -d -1 -p ack -e 40 -c 2 -a 0 -i 7 -k AGT 
- -t 1.200158062 -s 4 -d -1 -p ack -e 40 -c 2 -a 0 -i 7 -k AGT
h -t 1.200158062 -s 4 -d -1 -p ack -e 40 -c 2 -a 0 -i 7 -k AGT
+ -t 1.200158062 -s 4 -d 24 -p ack -e 40 -c 2 -a 0 -i 7 -k RTR 
- -t 1.200158062 -s 4 -d 24 -p ack -e 40 -c 2 -a 0 -i 7 -k RTR
h -t 1.200158062 -s 4 -d 24 -p ack -e 40 -c 2 -a 0 -i 7 -k RTR
+ -t 1.216815453 -s 11 -d 3 -p tcp -e 1540 -c 2 -a 0 -i 5 -k RTR 
- -t 1.216815453 -s 11 -d 3 -p tcp -e 1540 -c 2 -a 0 -i 5 -k RTR
h -t 1.216815453 -s 11 -d 3 -p tcp -e 1540 -c 2 -a 0 -i 5 -k RTR
+ -t 1.230781443 -s 3 -d 24 -p tcp -e 1540 -c 2 -a 0 -i 5 -k RTR 
- -t 1.230781443 -s 3 -d 24 -p tcp -e 1540 -c 2 -a 0 -i 5 -k RTR
h -t 1.230781443 -s 3 -d 24 -p tcp -e 1540 -c 2 -a 0 -i 5 -k RTR
+ -t 1.245092595 -s 11 -d 3 -p tcp -e 1540 -c 2 -a 0 -i 6 -k RTR 
- -t 1.245092595 -s 11 -d 3 -p tcp -e 1540 -c 2 -a 0 -i 6 -k RTR
h -t 1.245092595 -s 11 -d 3 -p tcp -e 1540 -c 2 -a 0 -i 6 -k RTR
+ -t 1.258918586 -s 3 -d 24 -p tcp -e 1540 -c 2 -a 0 -i 6 -k RTR 
- -t 1.258918586 -s 3 -d 24 -p tcp -e 1540 -c 2 -a 0 -i 6 -k RTR
h -t 1.258918586 -s 3 -d 24 -p tcp -e 1540 -c 2 -a 0 -i 6 -k RTR
+ -t 1.272785011 -s 24 -d 4 -p tcp -e 1540 -c 2 -a 0 -i 5 -k RTR 
- -t 1.272785011 -s 24 -d 4 -p tcp -e 1540 -c 2 -a 0 -i 5 -k RTR
h -t 1.272785011 -s 24 -d 4 -p tcp -e 1540 -c 2 -a 0 -i 5 -k RTR
+ -t 1.286612246 -s 24 -d 4 -p tcp -e 1540 -c 2 -a 0 -i 6 -k RTR 
- -t 1.286612246 -s 24 -d 4 -p tcp -e 1540 -c 2 -a 0 -i 6 -k RTR
h -t 1.286612246 -s 24 -d 4 -p tcp -e 1540 -c 2 -a 0 -i 6 -k RTR
r -t 1.300677642 -s 4 -d 4 -p tcp -e 1540 -c 2 -a 0 -i 5 -k AGT
+ -t 1.300677642 -s 4 -d -1 -p ack -e 40 -c 2 -a 0 -i 8 -k AGT 
- -t 1.300677642 -s 4 -d -1 -p ack -e 40 -c 2 -a 0 -i 8 -k AGT
h -t 1.300677642 -s 4 -d -1 -p ack -e 40 -c 2 -a 0 -i 8 -k AGT
+ -t 1.300677642 -s 4 -d 24 -p ack -e 40 -c 2 -a 0 -i 8 -k RTR 
- -t 1.300677642 -s 4 -d 24 -p ack -e 40 -c 2 -a 0 -i 8 -k RTR
h -t 1.300677642 -s 4 -d 24 -p ack -e 40 -c 2 -a 0 -i 8 -k RTR
r -t 1.314863505 -s 4 -d 4 -p tcp -e 1540 -c 2 -a 0 -i 6 -k AGT
+ -t 1.314863505 -s 4 -d -1 -p ack -e 40 -c 2 -a 0 -i 9 -k AGT 
- -t 1.314863505 -s 4 -d -1 -p ack -e 40 -c 2 -a 0 -i 9 -k AGT
h -t 1.314863505 -s 4 -d -1 -p ack -e 40 -c 2 -a 0 -i 9 -k AGT
+ -t 1.314863505 -s 4 -d 24 -p ack -e 40 -c 2 -a 0 -i 9 -k RTR 
- -t 1.314863505 -s 4 -d 24 -p ack -e 40 -c 2 -a 0 -i 9 -k RTR
h -t 1.314863505 -s 4 -d 24 -p ack -e 40 -c 2 -a 0 -i 9 -k RTR
+ -t 1.322368901 -s 24 -d 3 -p ack -e 40 -c 2 -a 0 -i 7 -k RTR 
- -t 1.322368901 -s 24 -d 3 -p ack -e 40 -c 2 -a 0 -i 7 -k RTR
h -t 1.322368901 -s 24 -d 3 -p ack -e 40 -c 2 -a 0 -i 7 -k RTR
+ -t 1.324695326 -s 3 -d 11 -p ack -e 40 -c 2 -a 0 -i 7 -k RTR 
- -t 1.324695326 -s 3 -d 11 -p ack -e 40 -c 2 -a 0 -i 7 -k RTR
h -t 1.324695326 -s 3 -d 11 -p ack -e 40 -c 2 -a 0 -i 7 -k RTR
+ -t 1.326661319 -s 11 -d 0 -p ack -e 40 -c 2 -a 0 -i 7 -k RTR 
- -t 1.326661319 -s 11 -d 0 -p ack -e 40 -c 2 -a 0 -i 7 -k RTR
h -t 1.326661319 -s 11 -d 0 -p ack -e 40 -c 2 -a 0 -i 7 -k RTR
+ -t 1.328972232 -s 24 -d 3 -p ack -e 40 -c 2 -a 0 -i 8 -k RTR 
- -t 1.328972232 -s 24 -d 3 -p ack -e 40 -c 2 -a 0 -i 8 -k RTR
h -t 1.328972232 -s 24 -d 3 -p ack -e 40 -c 2 -a 0 -i 8 -k RTR
+ -t 1.331098657 -s 3 -d 11 -p ack -e 40 -c 2 -a 0 -i 8 -k RTR 
- -t 1.331098657 -s 3 -d 11 -p ack -e 40 -c 2 -a 0 -i 8 -k RTR
h -t 1.331098657 -s 3 -d 11 -p ack -e 40 -c 2 -a 0 -i 8 -k RTR
r -t 1.333035082 -s 0 -d 0 -p ack -e 40 -c 2 -a 0 -i 7 -k AGT
+ -t 1.333035082 -s 0 -d -1 -p tcp -e 1540 -c 2 -a 0 -i 10 -k AGT 
- -t 1.333035082 -s 0 -d -1 -p tcp -e 1540 -c 2 -a 0 -i 10 -k AGT
h -t 1.333035082 -s 0 -d -1 -p tcp -e 1540 -c 2 -a 0 -i 10 -k AGT
+ -t 1.333035082 -s 0 -d -1 -p tcp -e 1540 -c 2 -a 0 -i 11 -k AGT 
- -t 1.333035082 -s 0 -d -1 -p tcp -e 1540 -c 2 -a 0 -i 11 -k AGT
h -t 1.333035082 -s 0 -d -1 -p tcp -e 1540 -c 2 -a 0 -i 11 -k AGT
+ -t 1.333035082 -s 0 -d 11 -p tcp -e 1540 -c 2 -a 0 -i 10 -k RTR 
- -t 1.333035082 -s 0 -d 11 -p tcp -e 1540 -c 2 -a 0 -i 10 -k RTR
h -t 1.333035082 -s 0 -d 11 -p tcp -e 1540 -c 2 -a 0 -i 10 -k RTR
+ -t 1.333035082 -s 0 -d 11 -p tcp -e 1540 -c 2 -a 0 -i 11 -k RTR 
- -t 1.333035082 -s 0 -d 11 -p tcp -e 1540 -c 2 -a 0 -i 11 -k RTR
h -t 1.333035082 -s 0 -d 11 -p tcp -e 1540 -c 2 -a 0 -i 11 -k RTR
+ -t 1.336139155 -s 11 -d 0 -p ack -e 40 -c 2 -a 0 -i 8 -k RTR 
- -t 1.336139155 -s 11 -d 0 -p ack -e 40 -c 2 -a 0 -i 8 -k RTR
h -t 1.336139155 -s 11 -d 0 -p ack -e 40 -c 2 -a 0 -i 8 -k RTR
+ -t 1.350135638 -s 11 -d 3 -p tcp -e 1540 -c 2 -a 0 -i 10 -k RTR 
- -t 1.350135638 -s 11 -d 3 -p tcp -e 1540 -c 2 -a 0 -i 10 -k RTR
h -t 1.350135638 -s 11 -d 3 -p tcp -e 1540 -c 2 -a 0 -i 10 -k RTR
r -t 1.352041766 -s 0 -d 0 -p ack -e 40 -c 2 -a 0 -i 8 -k AGT
+ -t 1.352041766 -s 0 -d -1 -p tcp -e 1540 -c 2 -a 0 -i 12 -k AGT 
- -t 1.352041766 -s 0 -d -1 -p tcp -e 1540 -c 2 -a 0 -i 12 -k AGT
h -t 1.352041766 -s 0 -d -1 -p tcp -e 1540 -c 2 -a 0 -i 12 -k AGT
+ -t 1.352041766 -s 0 -d -1 -p tcp -e 1540 -c 2 -a 0 -i 13 -k AGT 
- -t 1.352041766 -s 0 -d -1 -p tcp -e 1540 -c 2 -a 0 -i 13 -k AGT
h -t 1.352041766 -s 0 -d -1 -p tcp -e 1540 -c 2 -a 0 -i 13 -k AGT
+ -t 1.352041766 -s 0 -d 11 -p tcp -e 1540 -c 2 -a 0 -i 12 -k RTR 
- -t 1.352041766 -s 0 -d 11 -p tcp -e 1540 -c 2 -a 0 -i 12 -k RTR
h -t 1.352041766 -s 0 -d 11 -p tcp -e 1540 -c 2 -a 0 -i 12 -k RTR
+ -t 1.352041766 -s 0 -d 11 -p tcp -e 1540 -c 2 -a 0 -i 13 -k RTR 
- -t 1.352041766 -s 0 -d 11 -p tcp -e 1540 -c 2 -a 0 -i 13 -k RTR
h -t 1.352041766 -s 0 -d 11 -p tcp -e 1540 -c 2 -a 0 -i 13 -k RTR
+ -t 1.365868469 -s 3 -d 24 -p tcp -e 1540 -c 2 -a 0 -i 10 -k RTR 
- -t 1.365868469 -s 3 -d 24 -p tcp -e 1540 -c 2 -a 0 -i 10 -k RTR
h -t 1.365868469 -s 3 -d 24 -p tcp -e 1540 -c 2 -a 0 -i 10 -k RTR
+ -t 1.379834894 -s 24 -d 4 -p tcp -e 1540 -c 2 -a 0 -i 10 -k RTR 
- -t 1.379834894 -s 24 -d 4 -p tcp -e 1540 -c 2 -a 0 -i 10 -k RTR
h -t 1.379834894 -s 24 -d 4 -p tcp -e 1540 -c 2 -a 0 -i 10 -k RTR
r -t 1.393980290 -s 4 -d 4 -p tcp -e 1540 -c 2 -a 0 -i 10 -k AGT
+ -t 1.393980290 -s 4 -d -1 -p ack -e 40 -c 2 -a 0 -i 14 -k AGT 
- -t 1.393980290 -s 4 -d -1 -p ack -e 40 -c 2 -a 0 -i 14 -k AGT
h -t 1.393980290 -s 4 -d -1 -p ack -e 40 -c 2 -a 0 -i 14 -k AGT
+ -t 1.393980290 -s 4 -d 24 -p ack -e 40 -c 2 -a 0 -i 14 -k RTR 
- -t 1.393980290 -s 4 -d 24 -p ack -e 40 -c 2 -a 0 -i 14 -k RTR
h -t 1.393980290 -s 4 -d 24 -p ack -e 40 -c 2 -a 0 -i 14 -k RTR
+ -t 1.408397672 -s 11 -d 3 -p tcp -e 1540 -c 2 -a 0 -i 11 -k RTR 
- -t 1.408397672 -s 11 -d 3 -p tcp -e 1540 -c 2 -a 0 -i 11 -k RTR
h -t 1.408397672 -s 11 -d 3 -p tcp -e 1540 -c 2 -a 0 -i 11 -k RTR
+ -t 1.422423668 -s 3 -d 24 -p tcp -e 1540 -c 2 -a 0 -i 11 -k RTR 
- -t 1.422423668 -s 3 -d 24 -p tcp -e 1540 -c 2 -a 0 -i 11 -k RTR
h -t 1.422423668 -s 3 -d 24 -p tcp -e 1540 -c 2 -a 0 -i 11 -k RTR
+ -t 1.436650092 -s 24 -d 4 -p tcp -e 1540 -c 2 -a 0 -i 11 -k RTR 
- -t 1.436650092 -s 24 -d 4 -p tcp -e 1540 -c 2 -a 0 -i 11 -k RTR
h -t 1.436650092 -s 24 -d 4 -p tcp -e 1540 -c 2 -a 0 -i 11 -k RTR
r -t 1.450935488 -s 4 -d 4 -p tcp -e 1540 -c 2 -a 0 -i 11 -k AGT
+ -t 1.450935488 -s 4 -d -1 -p ack -e 40 -c 2 -a 0 -i 15 -k AGT 
- -t 1.450935488 -s 4 -d -1 -p ack -e 40 -c 2 -a 0 -i 15 -k AGT
h -t 1.450935488 -s 4 -d -1 -p ack -e 40 -c 2 -a 0 -i 15 -k AGT
+ -t 1.450935488 -s 4 -d 24 -p ack -e 40 -c 2 -a 0 -i 15 -k RTR 
- -t 1.450935488 -s 4 -d 24 -p ack -e 40 -c 2 -a 0 -i 15 -k RTR
h -t 1.450935488 -s 4 -d 24 -p ack -e 40 -c 2 -a 0 -i 15 -k RTR
d -t 1.457897966 -s 4 -d 24 -p ack -e 40 -c 2 -a 0 -i 9 -k RTR
d -t 1.457897966 -s 4 -d 24 -p ack -e 40 -c 2 -a 0 -i 14 -k RTR
d -t 1.457897966 -s 4 -d 24 -p ack -e 40 -c 2 -a 0 -i 15 -k RTR
+ -t 1.457897966 -s 4 -d 0 -p AODV -e 32 -c 2 -a 0 -i 0 -k RTR 
- -t 1.457897966 -s 4 -d 0 -p AODV -e 32 -c 2 -a 0 -i 0 -k RTR
h -t 1.457897966 -s 4 -d 0 -p AODV -e 32 -c 2 -a 0 -i 0 -k RTR
r -t 1.458798237 -s 5 -d 0 -p AODV -e 32 -c 2 -a 0 -i 0 -k RTR
r -t 1.458798285 -s 2 -d 0 -p AODV -e 32 -c 2 -a 0 -i 0 -k RTR
r -t 1.458798323 -s 14 -d 0 -p AODV -e 32 -c 2 -a 0 -i 0 -k RTR
r -t 1.458798551 -s 13 -d 0 -p AODV -e 32 -c 2 -a 0 -i 0 -k RTR
+ -t 1.464832867 -s 11 -d 3 -p tcp -e 1540 -c 2 -a 0 -i 12 -k RTR 
- -t 1.464832867 -s 11 -d 3 -p tcp -e 1540 -c 2 -a 0 -i 12 -k RTR
h -t 1.464832867 -s 11 -d 3 -p tcp -e 1540 -c 2 -a 0 -i 12 -k RTR
+ -t 1.478999699 -s 11 -d 3 -p tcp -e 1540 -c 2 -a 0 -i 13 -k RTR 
- -t 1.478999699 -s 11 -d 3 -p tcp -e 1540 -c 2 -a 0 -i 13 -k RTR
h -t 1.478999699 -s 11 -d 3 -p tcp -e 1540 -c 2 -a 0 -i 13 -k RTR
+ -t 1.492945698 -s 3 -d 24 -p tcp -e 1540 -c 2 -a 0 -i 12 -k RTR 
- -t 1.492945698 -s 3 -d 24 -p tcp -e 1540 -c 2 -a 0 -i 12 -k RTR
h -t 1.492945698 -s 3 -d 24 -p tcp -e 1540 -c 2 -a 0 -i 12 -k RTR
+ -t 1.506872364 -s 3 -d 24 -p tcp -e 1540 -c 2 -a 0 -i 13 -k RTR 
- -t 1.506872364 -s 3 -d 24 -p tcp -e 1540 -c 2 -a 0 -i 13 -k RTR
h -t 1.506872364 -s 3 -d 24 -p tcp -e 1540 -c 2 -a 0 -i 13 -k RTR
+ -t 1.520958788 -s 24 -d 4 -p tcp -e 1540 -c 2 -a 0 -i 12 -k RTR 
- -t 1.520958788 -s 24 -d 4 -p tcp -e 1540 -c 2 -a 0 -i 12 -k RTR