M 1.00000 0 (897.00, 96.00, 0.00), (456.00, 467.00), 9.00
M 1.00000 1 (652.00, 366.00, 0.00), (186.00, 173.00), 6.00
M 1.00000 2 (526.00, 575.00, 0.00), (888.00, 306.00), 8.00
M 1.00000 3 (898.00, 258.00, 0.00), (59.00, 152.00), 5.00
M 1.00000 4 (471.00, 959.00, 0.00), (10.00, 600.00), 7.00
M 1.00000 5 (944.00, 485.00, 0.00), (939.00, 905.00), 4.00
M 1.00000 6 (412.00, 354.00, 0.00), (980.00, 566.00), 9.00
M 1.00000 7 (880.00, 833.00, 0.00), (404.00, 261.00), 9.00
M 1.00000 8 (660.00, 436.00, 0.00), (288.00, 202.00), 3.00
M 1.00000 9 (944.00, 144.00, 0.00), (266.00, 502.00), 2.00
s 1.000000000 _0_ AGT  --- 0 tcp 40 [0 0 0 0] ------- [0:0 9:0 32 0] [0 0] 0 0
r 1.000000000 _0_ RTR  --- 0 tcp 40 [0 0 0 0] ------- [0:0 9:0 32 0] [0 0] 0 0
s 1.000000000 _1_ AGT  --- 1 tcp 40 [0 0 0 0] ------- [1:0 8:0 32 0] [0 0] 0 0
r 1.000000000 _1_ RTR  --- 1 tcp 40 [0 0 0 0] ------- [1:0 8:0 32 0] [0 0] 0 0
s 1.000000000 _2_ AGT  --- 2 tcp 40 [0 0 0 0] ------- [2:0 7:0 32 0] [0 0] 0 0
r 1.000000000 _2_ RTR  --- 2 tcp 40 [0 0 0 0] ------- [2:0 7:0 32 0] [0 0] 0 0
s 1.000000000 _3_ AGT  --- 3 tcp 40 [0 0 0 0] ------- [3:0 6:0 32 0] [0 0] 0 0
r 1.000000000 _3_ RTR  --- 3 tcp 40 [0 0 0 0] ------- [3:0 6:0 32 0] [0 0] 0 0
s 1.000000000 _4_ AGT  --- 4 tcp 40 [0 0 0 0] ------- [4:0 5:0 32 0] [0 0] 0 0
r 1.000000000 _4_ RTR  --- 4 tcp 40 [0 0 0 0] ------- [4:0 5:0 32 0] [0 0] 0 0
s 1.000000000 _0_ RTR  --- 0 AODV 48 [0 0 0 0] ------- [0:255 -1:255 30 0] [0x2 1 1 [9 0] [0 4]] (REQUEST)
s 1.000000000 _1_ RTR  --- 0 AODV 48 [0 0 0 0] ------- [1:255 -1:255 30 0] [0x2 1 1 [8 0] [1 4]] (REQUEST)
s 1.000000000 _2_ RTR  --- 0 AODV 48 [0 0 0 0] ------- [2:255 -1:255 30 0] [0x2 1 1 [7 0] [2 4]] (REQUEST)
s 1.000000000 _3_ RTR  --- 0 AODV 48 [0 0 0 0] ------- [3:255 -1:255 30 0] [0x2 1 1 [6 0] [3 4]] (REQUEST)
s 1.000000000 _4_ RTR  --- 0 AODV 48 [0 0 0 0] ------- [4:255 -1:255 30 0] [0x2 1 1 [5 0] [4 4]] (REQUEST)
r 1.000948224 _9_ RTR  --- 0 AODV 48 [0 ffffffff 0 800] ------- [0:255 -1:255 30 0] [0x2 1 1 [9 0] [0 4]] (REQUEST)
s 1.000948224 _9_ RTR  --- 0 AODV 44 [0 0 0 0] ------- [9:255 0:255 30 0] [0x4 1 [9 4] 10.000000] (REPLY)
r 1.000948540 _3_ RTR  --- 0 AODV 48 [0 ffffffff 0 800] ------- [0:255 -1:255 30 0] [0x2 1 1 [9 0] [0 4]] (REQUEST)
r 1.004623939 _9_ RTR  --- 0 AODV 48 [0 ffffffff 3 800] ------- [3:255 -1:255 30 0] [0x2 1 1 [6 0] [3 4]] (REQUEST)
r 1.004624069 _0_ RTR  --- 0 AODV 48 [0 ffffffff 3 800] ------- [3:255 -1:255 30 0] [0x2 1 1 [6 0] [3 4]] (REQUEST)
r 1.004624302 _5_ RTR  --- 0 AODV 48 [0 ffffffff 3 800] ------- [3:255 -1:255 30 0] [0x2 1 1 [6 0] [3 4]] (REQUEST)
s 1.005565328 _9_ RTR  --- 0 AODV 48 [0 ffffffff 3 800] ------- [9:255 -1:255 29 0] [0x2 2 1 [6 0] [3 4]] (REQUEST)
r 1.006366611 _0_ RTR  --- 0 AODV 44 [13a 0 9 800] ------- [9:255 0:255 30 0] [0x4 1 [9 4] 10.000000] (REPLY)
s 1.006366611 _0_ RTR  --- 0 tcp 40 [0 0 0 0] ------- [0:0 9:0 30 9] [0 0] 0 0
r 1.007599059 _0_ RTR  --- 0 AODV 48 [0 ffffffff 9 800] ------- [9:255 -1:255 29 0] [0x2 2 1 [6 0] [3 4]] (REQUEST)
r 1.007599245 _3_ RTR  --- 0 AODV 48 [0 ffffffff 9 800] ------- [9:255 -1:255 29 0] [0x2 2 1 [6 0] [3 4]] (REQUEST)
s 1.008111712 _5_ RTR  --- 0 AODV 48 [0 ffffffff 3 800] ------- [5:255 -1:255 29 0] [0x2 2 1 [6 0] [3 4]] (REQUEST)
r 1.009309731 _9_ AGT  --- 0 tcp 40 [13a 9 0 800] ------- [0:0 9:0 30 9] [0 0] 1 0
s 1.009309731 _9_ AGT  --- 5 ack 40 [0 0 0 0] ------- [9:0 0:0 32 0] [0 0] 0 0
r 1.009309731 _9_ RTR  --- 5 ack 40 [0 0 0 0] ------- [9:0 0:0 32 0] [0 0] 0 0
s 1.009309731 _9_ RTR  --- 5 ack 40 [0 0 0 0] ------- [9:0 0:0 30 0] [0 0] 0 0
s 1.009311775 _3_ RTR  --- 0 AODV 48 [0 ffffffff 0 800] ------- [3:255 -1:255 29 0] [0x2 2 1 [9 0] [0 4]] (REQUEST)
r 1.011174402 _0_ AGT  --- 5 ack 40 [13a 0 9 800] ------- [9:0 0:0 30 0] [0 0] 1 0
s 1.011174402 _0_ AGT  --- 6 tcp 1540 [0 0 0 0] ------- [0:0 9:0 32 0] [1 0] 0 0
r 1.011174402 _0_ RTR  --- 6 tcp 1540 [0 0 0 0] ------- [0:0 9:0 32 0] [1 0] 0 0
s 1.011174402 _0_ AGT  --- 7 tcp 1540 [0 0 0 0] ------- [0:0 9:0 32 0] [2 0] 0 0
r 1.011174402 _0_ RTR  --- 7 tcp 1540 [0 0 0 0] ------- [0:0 9:0 32 0] [2 0] 0 0
s 1.011174402 _0_ RTR  --- 6 tcp 1540 [0 0 0 0] ------- [0:0 9:0 30 9] [1 0] 0 0
s 1.011174402 _0_ RTR  --- 7 tcp 1540 [0 0 0 0] ------- [0:0 9:0 30 9] [2 0] 0 0
r 1.012427352 _9_ RTR  --- 0 AODV 48 [0 ffffffff 3 800] ------- [3:255 -1:255 29 0] [0x2 2 1 [9 0] [0 4]] (REQUEST)
r 1.012427482 _0_ RTR  --- 0 AODV 48 [0 ffffffff 3 800] ------- [3:255 -1:255 29 0] [0x2 2 1 [9 0] [0 4]] (REQUEST)
r 1.012427714 _5_ RTR  --- 0 AODV 48 [0 ffffffff 3 800] ------- [3:255 -1:255 29 0] [0x2 2 1 [9 0] [0 4]] (REQUEST)
s 1.012694355 _0_ RTR  --- 0 AODV 48 [0 ffffffff 3 800] ------- [0:255 -1:255 29 0] [0x2 2 1 [6 0] [3 4]] (REQUEST)
s 1.014599309 _5_ RTR  --- 0 AODV 48 [0 ffffffff 3 800] ------- [5:255 -1:255 28 0] [0x2 3 1 [9 0] [0 4]] (REQUEST)
r 1.026038154 _9_ AGT  --- 6 tcp 1540 [13a 9 0 800] ------- [0:0 9:0 30 9] [1 0] 1 0
s 1.026038154 _9_ AGT  --- 8 ack 40 [0 0 0 0] ------- [9:0 0:0 32 0] [1 0] 0 0
r 1.026038154 _9_ RTR  --- 8 ack 40 [0 0 0 0] ------- [9:0 0:0 32 0] [1 0] 0 0
s 1.026038154 _9_ RTR  --- 8 ack 40 [0 0 0 0] ------- [9:0 0:0 30 0] [1 0] 0 0
r 1.027610602 _9_ RTR  --- 0 AODV 48 [0 ffffffff 0 800] ------- [0:255 -1:255 29 0] [0x2 2 1 [6 0] [3 4]] (REQUEST)
r 1.027610917 _3_ RTR  --- 0 AODV 48 [0 ffffffff 0 800] ------- [0:255 -1:255 29 0] [0x2 2 1 [6 0] [3 4]] (REQUEST)
r 1.041161050 _9_ AGT  --- 7 tcp 1540 [13a 9 0 800] ------- [0:0 9:0 30 9] [2 0] 1 0
s 1.041161050 _9_ AGT  --- 9 ack 40 [0 0 0 0] ------- [9:0 0:0 32 0] [2 0] 0 0
r 1.041161050 _9_ RTR  --- 9 ack 40 [0 0 0 0] ------- [9:0 0:0 32 0] [2 0] 0 0
s 1.041161050 _9_ RTR  --- 9 ack 40 [0 0 0 0] ------- [9:0 0:0 30 0] [2 0] 0 0
r 1.043025721 _0_ AGT  --- 8 ack 40 [13a 0 9 800] ------- [9:0 0:0 30 0] [1 0] 1 0
s 1.043025721 _0_ AGT  --- 10 tcp 1540 [0 0 0 0] ------- [0:0 9:0 32 0] [3 0] 0 0
r 1.043025721 _0_ RTR  --- 10 tcp 1540 [0 0 0 0] ------- [0:0 9:0 32 0] [3 0] 0 0
s 1.043025721 _0_ AGT  --- 11 tcp 1540 [0 0 0 0] ------- [0:0 9:0 32 0] [4 0] 0 0
r 1.043025721 _0_ RTR  --- 11 tcp 1540 [0 0 0 0] ------- [0:0 9:0 32 0] [4 0] 0 0
s 1.043025721 _0_ RTR  --- 10 tcp 1540 [0 0 0 0] ------- [0:0 9:0 30 9] [3 0] 0 0
s 1.043025721 _0_ RTR  --- 11 tcp 1540 [0 0 0 0] ------- [0:0 9:0 30 9] [4 0] 0 0
r 1.057110393 _9_ AGT  --- 10 tcp 1540 [13a 9 0 800] ------- [0:0 9:0 30 9] [3 0] 1 0
s 1.057110393 _9_ AGT  --- 12 ack 40 [0 0 0 0] ------- [9:0 0:0 32 0] [3 0] 0 0
r 1.057110393 _9_ RTR  --- 12 ack 40 [0 0 0 0] ------- [9:0 0:0 32 0] [3 0] 0 0
s 1.057110393 _9_ RTR  --- 12 ack 40 [0 0 0 0] ------- [9:0 0:0 30 0] [3 0] 0 0
r 1.059035065 _0_ AGT  --- 9 ack 40 [13a 0 9 800] ------- [9:0 0:0 30 0] [2 0] 1 0
s 1.059035065 _0_ AGT  --- 13 tcp 1540 [0 0 0 0] ------- [0:0 9:0 32 0] [5 0] 0 0
r 1.059035065 _0_ RTR  --- 13 tcp 1540 [0 0 0 0] ------- [0:0 9:0 32 0] [5 0] 0 0
s 1.059035065 _0_ AGT  --- 14 tcp 1540 [0 0 0 0] ------- [0:0 9:0 32 0] [6 0] 0 0
r 1.059035065 _0_ RTR  --- 14 tcp 1540 [0 0 0 0] ------- [0:0 9:0 32 0] [6 0] 0 0
s 1.059035065 _0_ RTR  --- 13 tcp 1540 [0 0 0 0] ------- [0:0 9:0 30 9] [5 0] 0 0
s 1.059035065 _0_ RTR  --- 14 tcp 1540 [0 0 0 0] ------- [0:0 9:0 30 9] [6 0] 0 0
r 1.072899737 _9_ AGT  --- 11 tcp 1540 [13a 9 0 800] ------- [0:0 9:0 30 9] [4 0] 1 0
s 1.072899737 _9_ AGT  --- 15 ack 40 [0 0 0 0] ------- [9:0 0:0 32 0] [4 0] 0 0
r 1.072899737 _9_ RTR  --- 15 ack 40 [0 0 0 0] ------- [9:0 0:0 32 0] [4 0] 0 0
s 1.072899737 _9_ RTR  --- 15 ack 40 [0 0 0 0] ------- [9:0 0:0 30 0] [4 0] 0 0
r 1.074764409 _0_ AGT  --- 12 ack 40 [13a 0 9 800] ------- [9:0 0:0 30 0] [3 0] 1 0
s 1.074764409 _0_ AGT  --- 16 tcp 1540 [0 0 0 0] ------- [0:0 9:0 32 0] [7 0] 0 0
r 1.074764409 _0_ RTR  --- 16 tcp 1540 [0 0 0 0] ------- [0:0 9:0 32 0] [7 0] 0 0
s 1.074764409 _0_ AGT  --- 17 tcp 1540 [0 0 0 0] ------- [0:0 9:0 32 0] [8 0] 0 0
r 1.074764409 _0_ RTR  --- 17 tcp 1540 [0 0 0 0] ------- [0:0 9:0 32 0] [8 0] 0 0
s 1.074764409 _0_ RTR  --- 16 tcp 1540 [0 0 0 0] ------- [0:0 9:0 30 9] [7 0] 0 0
s 1.074764409 _0_ RTR  --- 17 tcp 1540 [0 0 0 0] ------- [0:0 9:0 30 9] [8 0] 0 0
r 1.076789305 _0_ AGT  --- 15 ack 40 [13a 0 9 800] ------- [9:0 0:0 30 0] [4 0] 1 0
s 1.076789305 _0_ AGT  --- 18 tcp 1540 [0 0 0 0] ------- [0:0 9:0 32 0] [9 0] 0 0
r 1.076789305 _0_ RTR  --- 18 tcp 1540 [0 0 0 0] ------- [0:0 9:0 32 0] [9 0] 0 0
s 1.076789305 _0_ AGT  --- 19 tcp 1540 [0 0 0 0] ------- [0:0 9:0 32 0] [10 0] 0 0
r 1.076789305 _0_ RTR  --- 19 tcp 1540 [0 0 0 0] ------- [0:0 9:0 32 0] [10 0] 0 0
s 1.076789305 _0_ RTR  --- 18 tcp 1540 [0 0 0 0] ------- [0:0 9:0 30 9] [9 0] 0 0
s 1.076789305 _0_ RTR  --- 19 tcp 1540 [0 0 0 0] ------- [0:0 9:0 30 9] [10 0] 0 0
r 1.090653977 _9_ AGT  --- 13 tcp 1540 [13a 9 0 800] ------- [0:0 9:0 30 9] [5 0] 1 0
s 1.090653977 _9_ AGT  --- 20 ack 40 [0 0 0 0] ------- [9:0 0:0 32 0] [5 0] 0 0
r 1.090653977 _9_ RTR  --- 20 ack 40 [0 0 0 0] ------- [9:0 0:0 32 0] [5 0] 0 0
s 1.090653977 _9_ RTR  --- 20 ack 40 [0 0 0 0] ------- [9:0 0:0 30 0] [5 0] 0 0
r 1.092538649 _0_ AGT  --- 20 ack 40 [13a 0 9 800] ------- [9:0 0:0 30 0] [5 0] 1 0
s 1.092538649 _0_ AGT  --- 21 tcp 1540 [0 0 0 0] ------- [0:0 9:0 32 0] [11 0] 0 0
r 1.092538649 _0_ RTR  --- 21 tcp 1540 [0 0 0 0] ------- [0:0 9:0 32 0] [11 0] 0 0
s 1.092538649 _0_ AGT  --- 22 tcp 1540 [0 0 0 0] ------- [0:0 9:0 32 0] [12 0] 0 0
r 1.092538649 _0_ RTR  --- 22 tcp 1540 [0 0 0 0] ------- [0:0 9:0 32 0] [12 0] 0 0
s 1.092538649 _0_ RTR  --- 21 tcp 1540 [0 0 0 0] ------- [0:0 9:0 30 9] [11 0] 0 0
s 1.092538649 _0_ RTR  --- 22 tcp 1540 [0 0 0 0] ------- [0:0 9:0 30 9] [12 0] 0 0
r 1.106823320 _9_ AGT  --- 14 tcp 1540 [13a 9 0 800] ------- [0:0 9:0 30 9] [6 0] 1 0
s 1.106823320 _9_ AGT  --- 23 ack 40 [0 0 0 0] ------- [9:0 0:0 32 0] [6 0] 0 0
r 1.106823320 _9_ RTR  --- 23 ack 40 [0 0 0 0] ------- [9:0 0:0 32 0] [6 0] 0 0
s 1.106823320 _9_ RTR  --- 23 ack 40 [0 0 0 0] ------- [9:0 0:0 30 0] [6 0] 0 0
r 1.108847992 _0_ AGT  --- 23 ack 40 [13a 0 9 800] ------- [9:0 0:0 30 0] [6 0] 1 0
s 1.108847992 _0_ AGT  --- 24 tcp 1540 [0 0 0 0] ------- [0:0 9:0 32 0] [13 0] 0 0
r 1.108847992 _0_ RTR  --- 24 tcp 1540 [0 0 0 0] ------- [0:0 9:0 32 0] [13 0] 0 0
s 1.108847992 _0_ AGT  --- 25 tcp 1540 [0 0 0 0] ------- [0:0 9:0 32 0] [14 0] 0 0
r 1.108847992 _0_ RTR  --- 25 tcp 1540 [0 0 0 0] ------- [0:0 9:0 32 0] [14 0] 0 0
s 1.108847992 _0_ RTR  --- 24 tcp 1540 [0 0 0 0] ------- [0:0 9:0 30 9] [13 0] 0 0
s 1.108847992 _0_ RTR  --- 25 tcp 1540 [0 0 0 0] ------- [0:0 9:0 30 9] [14 0] 0 0
r 1.123052664 _9_ AGT  --- 16 tcp 1540 [13a 9 0 800] ------- [0:0 9:0 30 9] [7 0] 1 0
s 1.123052664 _9_ AGT  --- 26 ack 40 [0 0 0 0] ------- [9:0 0:0 32 0] [7 0] 0 0
r 1.123052664 _9_ RTR  --- 26 ack 40 [0 0 0 0] ------- [9:0 0:0 32 0] [7 0] 0 0
s 1.123052664 _9_ RTR  --- 26 ack 40 [0 0 0 0] ------- [9:0 0:0 30 0] [7 0] 0 0
r 1.124997336 _0_ AGT  --- 26 ack 40 [13a 0 9 800] ------- [9:0 0:0 30 0] [7 0] 1 0
s 1.124997336 _0_ AGT  --- 27 tcp 1540 [0 0 0 0] ------- [0:0 9:0 32 0] [15 0] 0 0
r 1.124997336 _0_ RTR  --- 27 tcp 1540 [0 0 0 0] ------- [0:0 9:0 32 0] [15 0] 0 0
s 1.124997336 _0_ AGT  --- 28 tcp 1540 [0 0 0 0] ------- [0:0 9:0 32 0] [16 0] 0 0
r 1.124997336 _0_ RTR  --- 28 tcp 1540 [0 0 0 0] ------- [0:0 9:0 32 0] [16 0] 0 0
s 1.124997336 _0_ RTR  --- 27 tcp 1540 [0 0 0 0] ------- [0:0 9:0 30 9] [15 0] 0 0
s 1.124997336 _0_ RTR  --- 28 tcp 1540 [0 0 0 0] ------- [0:0 9:0 30 9] [16 0] 0 0
r 1.139042008 _9_ AGT  --- 17 tcp 1540 [13a 9 0 800] ------- [0:0 9:0 30 9] [8 0] 1 0
s 1.139042008 _9_ AGT  --- 29 ack 40 [0 0 0 0] ------- [9:0 0:0 32 0] [8 0] 0 0
r 1.139042008 _9_ RTR  --- 29 ack 40 [0 0 0 0] ------- [9:0 0:0 32 0] [8 0] 0 0
s 1.139042008 _9_ RTR  --- 29 ack 40 [0 0 0 0] ------- [9:0 0:0 30 0] [8 0] 0 0
r 1.141381680 _8_ RTR  --- 0 AODV 48 [0 ffffffff 1 800] ------- [1:255 -1:255 30 0] [0x2 1 1 [8 0] [1 4]] (REQUEST)
s 1.141381680 _8_ RTR  --- 0 AODV 44 [0 0 0 0] ------- [8:255 1:255 30 1] [0x4 1 [8 4] 10.000000] (REPLY)
r 1.141382239 _6_ RTR  --- 0 AODV 48 [0 ffffffff 1 800] ------- [1:255 -1:255 30 0] [0x2 1 1 [8 0] [1 4]] (REQUEST)
r 1.141382254 _2_ RTR  --- 0 AODV 48 [0 ffffffff 1 800] ------- [1:255 -1:255 30 0] [0x2 1 1 [8 0] [1 4]] (REQUEST)
r 1.145901327 _1_ RTR  --- 0 AODV 44 [13a 1 8 800] ------- [8:255 1:255 30 1] [0x4 1 [8 4] 10.000000] (REPLY)
s 1.145901327 _1_ RTR  --- 1 tcp 40 [0 0 0 0] ------- [1:0 8:0 30 8] [0 0] 0 0
s 1.146830458 _6_ RTR  --- 0 AODV 48 [0 ffffffff 1 800] ------- [6:255 -1:255 29 0] [0x2 2 1 [8 0] [1 4]] (REQUEST)
r 1.147926033 _8_ AGT  --- 1 tcp 40 [13a 8 1 800] ------- [1:0 8:0 30 8] [0 0] 1 0
s 1.147926033 _8_ AGT  --- 30 ack 40 [0 0 0 0] ------- [8:0 1:0 32 0] [0 0] 0 0
r 1.147926033 _8_ RTR  --- 30 ack 40 [0 0 0 0] ------- [8:0 1:0 32 0] [0 0] 0 0
s 1.147926033 _8_ RTR  --- 30 ack 40 [0 0 0 0] ------- [8:0 1:0 30 1] [0 0] 0 0
r 1.149750739 _1_ AGT  --- 30 ack 40 [13a 1 8 800] ------- [8:0 1:0 30 1] [0 0] 1 0
s 1.149750739 _1_ AGT  --- 31 tcp 1540 [0 0 0 0] ------- [1:0 8:0 32 0] [1 0] 0 0
r 1.149750739 _1_ RTR  --- 31 tcp 1540 [0 0 0 0] ------- [1:0 8:0 32 0] [1 0] 0 0
s 1.149750739 _1_ AGT  --- 32 tcp 1540 [0 0 0 0] ------- [1:0 8:0 32 0] [2 0] 0 0
r 1.149750739 _1_ RTR  --- 32 tcp 1540 [0 0 0 0] ------- [1:0 8:0 32 0] [2 0] 0 0
s 1.149750739 _1_ RTR  --- 31 tcp 1540 [0 0 0 0] ------- [1:0 8:0 30 8] [1 0] 0 0
s 1.149750739 _1_ RTR  --- 32 tcp 1540 [0 0 0 0] ------- [1:0 8:0 30 8] [2 0] 0 0
s 1.150148811 _2_ RTR  --- 0 AODV 48 [0 ffffffff 1 800] ------- [2:255 -1:255 29 0] [0x2 2 1 [8 0] [1 4]] (REQUEST)
r 1.163815446 _8_ AGT  --- 31 tcp 1540 [13a 8 1 800] ------- [1:0 8:0 30 8] [1 0] 1 0
s 1.163815446 _8_ AGT  --- 33 ack 40 [0 0 0 0] ------- [8:0 1:0 32 0] [1 0] 0 0
r 1.163815446 _8_ RTR  --- 33 ack 40 [0 0 0 0] ------- [8:0 1:0 32 0] [1 0] 0 0
s 1.163815446 _8_ RTR  --- 33 ack 40 [0 0 0 0] ------- [8:0 1:0 30 1] [1 0] 0 0
r 1.177660387 _8_ AGT  --- 32 tcp 1540 [13a 8 1 800] ------- [1:0 8:0 30 8] [2 0] 1 0
s 1.177660387 _8_ AGT  --- 34 ack 40 [0 0 0 0] ------- [8:0 1:0 32 0] [2 0] 0 0
r 1.177660387 _8_ RTR  --- 34 ack 40 [0 0 0 0] ------- [8:0 1:0 32 0] [2 0] 0 0
s 1.177660387 _8_ RTR  --- 34 ack 40 [0 0 0 0] ------- [8:0 1:0 30 1] [2 0] 0 0
r 1.179525094 _1_ AGT  --- 33 ack 40 [13a 1 8 800] ------- [8:0 1:0 30 1] [1 0] 1 0
s 1.179525094 _1_ AGT  --- 35 tcp 1540 [0 0 0 0] ------- [1:0 8:0 32 0] [3 0] 0 0
r 1.179525094 _1_ RTR  --- 35 tcp 1540 [0 0 0 0] ------- [1:0 8:0 32 0] [3 0] 0 0
s 1.179525094 _1_ AGT  --- 36 tcp 1540 [0 0 0 0] ------- [1:0 8:0 32 0] [4 0] 0 0
r 1.179525094 _1_ RTR  --- 36 tcp 1540 [0 0 0 0] ------- [1:0 8:0 32 0] [4 0] 0 0
s 1.179525094 _1_ RTR  --- 35 tcp 1540 [0 0 0 0] ------- [1:0 8:0 30 8] [3 0] 0 0
s 1.179525094 _1_ RTR  --- 36 tcp 1540 [0 0 0 0] ------- [1:0 8:0 30 8] [4 0] 0 0
r 1.180878541 _8_ RTR  --- 0 AODV 48 [0 ffffffff 2 800] ------- [2:255 -1:255 29 0] [0x2 2 1 [8 0] [1 4]] (REQUEST)
r 1.180878726 _6_ RTR  --- 0 AODV 48 [0 ffffffff 2 800] ------- [2:255 -1:255 29 0] [0x2 2 1 [8 0] [1 4]] (REQUEST)
r 1.194114977 _9_ AGT  --- 18 tcp 1540 [13a 9 0 800] ------- [0:0 9:0 30 9] [9 0] 1 0
s 1.194114977 _9_ AGT  --- 37 ack 40 [0 0 0 0] ------- [9:0 0:0 32 0] [9 0] 0 0
r 1.194114977 _9_ RTR  --- 37 ack 40 [0 0 0 0] ------- [9:0 0:0 32 0] [9 0] 0 0
s 1.194114977 _9_ RTR  --- 37 ack 40 [0 0 0 0] ------- [9:0 0:0 30 0] [9 0] 0 0
r 1.195419399 _2_ RTR  --- 0 AODV 48 [0 ffffffff 6 800] ------- [6:255 -1:255 29 0] [0x2 2 1 [8 0] [1 4]] (REQUEST)
r 1.197394145 _1_ AGT  --- 34 ack 40 [13a 1 8 800] ------- [8:0 1:0 30 1] [2 0] 1 0
s 1.197394145 _1_ AGT  --- 38 tcp 1540 [0 0 0 0] ------- [1:0 8:0 32 0] [5 0] 0 0
r 1.197394145 _1_ RTR  --- 38 tcp 1540 [0 0 0 0] ------- [1:0 8:0 32 0] [5 0] 0 0
s 1.197394145 _1_ AGT  --- 39 tcp 1540 [0 0 0 0] ------- [1:0 8:0 32 0] [6 0] 0 0
r 1.197394145 _1_ RTR  --- 39 tcp 1540 [0 0 0 0] ------- [1:0 8:0 32 0] [6 0] 0 0
s 1.197394145 _1_ RTR  --- 38 tcp 1540 [0 0 0 0] ------- [1:0 8:0 30 8] [5 0] 0 0
s 1.197394145 _1_ RTR  --- 39 tcp 1540 [0 0 0 0] ------- [1:0 8:0 30 8] [6 0] 0 0
r 1.211418851 _8_ AGT  --- 35 tcp 1540 [13a 8 1 800] ------- [1:0 8:0 30 8] [3 0] 1 0
s 1.211418851 _8_ AGT  --- 40 ack 40 [0 0 0 0] ------- [8:0 1:0 32 0] [3 0] 0 0
r 1.211418851 _8_ RTR  --- 40 ack 40 [0 0 0 0] ------- [8:0 1:0 32 0] [3 0] 0 0
s 1.211418851 _8_ RTR  --- 40 ack 40 [0 0 0 0] ------- [8:0 1:0 30 1] [3 0] 0 0
r 1.225343794 _8_ AGT  --- 36 tcp 1540 [13a 8 1 800] ------- [1:0 8:0 30 8] [4 0] 1 0
s 1.225343794 _8_ AGT  --- 41 ack 40 [0 0 0 0] ------- [8:0 1:0 32 0] [4 0] 0 0
r 1.225343794 _8_ RTR  --- 41 ack 40 [0 0 0 0] ------- [8:0 1:0 32 0] [4 0] 0 0
s 1.225343794 _8_ RTR  --- 41 ack 40 [0 0 0 0] ------- [8:0 1:0 30 1] [4 0] 0 0
r 1.239248736 _8_ AGT  --- 38 tcp 1540 [13a 8 1 800] ------- [1:0 8:0 30 8] [5 0] 1 0
s 1.239248736 _8_ AGT  --- 42 ack 40 [0 0 0 0] ------- [8:0 1:0 32 0] [5 0] 0 0
r 1.239248736 _8_ RTR  --- 42 ack 40 [0 0 0 0] ------- [8:0 1:0 32 0] [5 0] 0 0
s 1.239248736 _8_ RTR  --- 42 ack 40 [0 0 0 0] ------- [8:0 1:0 30 1] [5 0] 0 0
r 1.241093443 _1_ AGT  --- 40 ack 40 [13a 1 8 800] ------- [8:0 1:0 30 1] [3 0] 1 0
s 1.241093443 _1_ AGT  --- 43 tcp 1540 [0 0 0 0] ------- [1:0 8:0 32 0] [7 0] 0 0
r 1.241093443 _1_ RTR  --- 43 tcp 1540 [0 0 0 0] ------- [1:0 8:0 32 0] [7 0] 0 0
s 1.241093443 _1_ AGT  --- 44 tcp 1540 [0 0 0 0] ------- [1:0 8:0 32 0] [8 0] 0 0
r 1.241093443 _1_ RTR  --- 44 tcp 1540 [0 0 0 0] ------- [1:0 8:0 32 0] [8 0] 0 0
s 1.241093443 _1_ RTR  --- 43 tcp 1540 [0 0 0 0] ------- [1:0 8:0 30 8] [7 0] 0 0
s 1.241093443 _1_ RTR  --- 44 tcp 1540 [0 0 0 0] ------- [1:0 8:0 30 8] [8 0] 0 0
r 1.243118386 _1_ AGT  --- 41 ack 40 [13a 1 8 800] ------- [8:0 1:0 30 1] [4 0] 1 0
s 1.243118386 _1_ AGT  --- 45 tcp 1540 [0 0 0 0] ------- [1:0 8:0 32 0] [9 0] 0 0
r 1.243118386 _1_ RTR  --- 45 tcp 1540 [0 0 0 0] ------- [1:0 8:0 32 0] [9 0] 0 0
s 1.243118386 _1_ AGT  --- 46 tcp 1540 [0 0 0 0] ------- [1:0 8:0 32 0] [10 0] 0 0
r 1.243118386 _1_ RTR  --- 46 tcp 1540 [0 0 0 0] ------- [1:0 8:0 32 0] [10 0] 0 0
s 1.243118386 _1_ RTR  --- 45 tcp 1540 [0 0 0 0] ------- [1:0 8:0 30 8] [9 0] 0 0
s 1.243118386 _1_ RTR  --- 46 tcp 1540 [0 0 0 0] ------- [1:0 8:0 30 8] [10 0] 0 0
r 1.256983093 _8_ AGT  --- 39 tcp 1540 [13a 8 1 800] ------- [1:0 8:0 30 8] [6 0] 1 0
s 1.256983093 _8_ AGT  --- 47 ack 40 [0 0 0 0] ------- [8:0 1:0 32 0] [6 0] 0 0
r 1.256983093 _8_ RTR  --- 47 ack 40 [0 0 0 0] ------- [8:0 1:0 32 0] [6 0] 0 0
s 1.256983093 _8_ RTR  --- 47 ack 40 [0 0 0 0] ------- [8:0 1:0 30 1] [6 0] 0 0
r 1.258827801 _1_ AGT  --- 42 ack 40 [13a 1 8 800] ------- [8:0 1:0 30 1] [5 0] 1 0
s 1.258827801 _1_ AGT  --- 48 tcp 1540 [0 0 0 0] ------- [1:0 8:0 32 0] [11 0] 0 0
r 1.258827801 _1_ RTR  --- 48 tcp 1540 [0 0 0 0] ------- [1:0 8:0 32 0] [11 0] 0 0
s 1.258827801 _1_ AGT  --- 49 tcp 1540 [0 0 0 0] ------- [1:0 8:0 32 0] [12 0] 0 0
r 1.258827801 _1_ RTR  --- 49 tcp 1540 [0 0 0 0] ------- [1:0 8:0 32 0] [12 0] 0 0
s 1.258827801 _1_ RTR  --- 48 tcp 1540 [0 0 0 0] ------- [1:0 8:0 30 8] [11 0] 0 0
s 1.258827801 _1_ RTR  --- 49 tcp 1540 [0 0 0 0] ------- [1:0 8:0 30 8] [12 0] 0 0
r 1.272972508 _8_ AGT  --- 43 tcp 1540 [13a 8 1 800] ------- [1:0 8:0 30 8] [7 0] 1 0
s 1.272972508 _8_ AGT  --- 50 ack 40 [0 0 0 0] ------- [8:0 1:0 32 0] [7 0] 0 0
r 1.272972508 _8_ RTR  --- 50 ack 40 [0 0 0 0] ------- [8:0 1:0 32 0] [7 0] 0 0
s 1.272972508 _8_ RTR  --- 50 ack 40 [0 0 0 0] ------- [8:0 1:0 30 1] [7 0] 0 0
r 1.286917451 _8_ AGT  --- 44 tcp 1540 [13a 8 1 800] ------- [1:0 8:0 30 8] [8 0] 1 0
s 1.286917451 _8_ AGT  --- 51 ack 40 [0 0 0 0] ------- [8:0 1:0 32 0] [8 0] 0 0
r 1.286917451 _8_ RTR  --- 51 ack 40 [0 0 0 0] ------- [8:0 1:0 32 0] [8 0] 0 0
s 1.286917451 _8_ RTR  --- 51 ack 40 [0 0 0 0] ------- [8:0 1:0 30 1] [8 0] 0 0
r 1.300802395 _8_ AGT  --- 45 tcp 1540 [13a 8 1 800] ------- [1:0 8:0 30 8] [9 0] 1 0
s 1.300802395 _8_ AGT  --- 52 ack 40 [0 0 0 0] ------- [8:0 1:0 32 0] [9 0] 0 0
r 1.300802395 _8_ RTR  --- 52 ack 40 [0 0 0 0] ------- [8:0 1:0 32 0] [9 0] 0 0
s 1.300802395 _8_ RTR  --- 52 ack 40 [0 0 0 0] ------- [8:0 1:0 30 1] [9 0] 0 0
r 1.302727102 _1_ AGT  --- 47 ack 40 [13a 1 8 800] ------- [8:0 1:0 30 1] [6 0] 1 0
s 1.302727102 _1_ AGT  --- 53 tcp 1540 [0 0 0 0] ------- [1:0 8:0 32 0] [13 0] 0 0
r 1.302727102 _1_ RTR  --- 53 tcp 1540 [0 0 0 0] ------- [1:0 8:0 32 0] [13 0] 0 0
s 1.302727102 _1_ AGT  --- 54 tcp 1540 [0 0 0 0] ------- [1:0 8:0 32 0] [14 0] 0 0
r 1.302727102 _1_ RTR  --- 54 tcp 1540 [0 0 0 0] ------- [1:0 8:0 32 0] [14 0] 0 0
s 1.302727102 _1_ RTR  --- 53 tcp 1540 [0 0 0 0] ------- [1:0 8:0 30 8] [13 0] 0 0
s 1.302727102 _1_ RTR  --- 54 tcp 1540 [0 0 0 0] ------- [1:0 8:0 30 8] [14 0] 0 0
r 1.304672046 _1_ AGT  --- 50 ack 40 [13a 1 8 800] ------- [8:0 1:0 30 1] [7 0] 1 0
s 1.304672046 _1_ AGT  --- 55 tcp 1540 [0 0 0 0] ------- [1:0 8:0 32 0] [15 0] 0 0
r 1.304672046 _1_ RTR  --- 55 tcp 1540 [0 0 0 0] ------- [1:0 8:0 32 0] [15 0] 0 0
s 1.304672046 _1_ AGT  --- 56 tcp 1540 [0 0 0 0] ------- [1:0 8:0 32 0] [16 0] 0 0
r 1.304672046 _1_ RTR  --- 56 tcp 1540 [0 0 0 0] ------- [1:0 8:0 32 0] [16 0] 0 0
s 1.304672046 _1_ RTR  --- 55 tcp 1540 [0 0 0 0] ------- [1:0 8:0 30 8] [15 0] 0 0
s 1.304672046 _1_ RTR  --- 56 tcp 1540 [0 0 0 0] ------- [1:0 8:0 30 8] [16 0] 0 0
r 1.318856754 _8_ AGT  --- 46 tcp 1540 [13a 8 1 800] ------- [1:0 8:0 30 8] [10 0] 1 0
s 1.318856754 _8_ AGT  --- 57 ack 40 [0 0 0 0] ------- [8:0 1:0 32 0] [10 0] 0 0
r 1.318856754 _8_ RTR  --- 57 ack 40 [0 0 0 0] ------- [8:0 1:0 32 0] [10 0] 0 0
s 1.318856754 _8_ RTR  --- 57 ack 40 [0 0 0 0] ------- [8:0 1:0 30 1] [10 0] 0 0
r 1.320921462 _1_ AGT  --- 51 ack 40 [13a 1 8 800] ------- [8:0 1:0 30 1] [8 0] 1 0
s 1.320921462 _1_ AGT  --- 58 tcp 1540 [0 0 0 0] ------- [1:0 8:0 32 0] [17 0] 0 0
r 1.320921462 _1_ RTR  --- 58 tcp 1540 [0 0 0 0] ------- [1:0 8:0 32 0] [17 0] 0 0
s 1.320921462 _1_ AGT  --- 59 tcp 1540 [0 0 0 0] ------- [1:0 8:0 32 0] [18 0] 0 0
r 1.320921462 _1_ RTR  --- 59 tcp 1540 [0 0 0 0] ------- [1:0 8:0 32 0] [18 0] 0 0
s 1.320921462 _1_ RTR  --- 58 tcp 1540 [0 0 0 0] ------- [1:0 8:0 30 8] [17 0] 0 0
s 1.320921462 _1_ RTR  --- 59 tcp 1540 [0 0 0 0] ------- [1:0 8:0 30 8] [18 0] 0 0
s 1.324997336 _0_ AGT  --- 60 tcp 1540 [0 0 0 0] ------- [0:0 9:0 32 0] [8 0] 0 0
r 1.324997336 _0_ RTR  --- 60 tcp 1540 [0 0 0 0] ------- [0:0 9:0 32 0] [8 0] 0 0
s 1.324997336 _0_ RTR  --- 60 tcp 1540 [0 0 0 0] ------- [0:0 9:0 30 9] [8 0] 0 0
r 1.334946170 _8_ AGT  --- 48 tcp 1540 [13a 8 1 800] ------- [1:0 8:0 30 8] [11 0] 1 0
s 1.334946170 _8_ AGT  --- 61 ack 40 [0 0 0 0] ------- [8:0 1:0 32 0] [11 0] 0 0
r 1.334946170 _8_ RTR  --- 61 ack 40 [0 0 0 0] ------- [8:0 1:0 32 0] [11 0] 0 0
s 1.334946170 _8_ RTR  --- 61 ack 40 [0 0 0 0] ------- [8:0 1:0 30 1] [11 0] 0 0
r 1.349071114 _8_ AGT  --- 49 tcp 1540 [13a 8 1 800] ------- [1:0 8:0 30 8] [12 0] 1 0
s 1.349071114 _8_ AGT  --- 62 ack 40 [0 0 0 0] ------- [8:0 1:0 32 0] [12 0] 0 0
r 1.349071114 _8_ RTR  --- 62 ack 40 [0 0 0 0] ------- [8:0 1:0 32 0] [12 0] 0 0
s 1.349071114 _8_ RTR  --- 62 ack 40 [0 0 0 0] ------- [8:0 1:0 30 1] [12 0] 0 0
r 1.350935822 _1_ AGT  --- 52 ack 40 [13a 1 8 800] ------- [8:0 1:0 30 1] [9 0] 1 0
s 1.350935822 _1_ AGT  --- 63 tcp 1540 [0 0 0 0] ------- [1:0 8:0 32 0] [19 0] 0 0
r 1.350935822 _1_ RTR  --- 63 tcp 1540 [0 0 0 0] ------- [1:0 8:0 32 0] [19 0] 0 0
s 1.350935822 _1_ AGT  --- 64 tcp 1540 [0 0 0 0] ------- [1:0 8:0 32 0] [20 0] 0 0
r 1.350935822 _1_ RTR  --- 64 tcp 1540 [0 0 0 0] ------- [1:0 8:0 32 0] [20 0] 0 0
s 1.350935822 _1_ RTR  --- 63 tcp 1540 [0 0 0 0] ------- [1:0 8:0 30 8] [19 0] 0 0
s 1.350935822 _1_ RTR  --- 64 tcp 1540 [0 0 0 0] ------- [1:0 8:0 30 8] [20 0] 0 0
r 1.365020530 _8_ AGT  --- 53 tcp 1540 [13a 8 1 800] ------- [1:0 8:0 30 8] [13 0] 1 0
s 1.365020530 _8_ AGT  --- 65 ack 40 [0 0 0 0] ------- [8:0 1:0 32 0] [13 0] 0 0
r 1.365020530 _8_ RTR  --- 65 ack 40 [0 0 0 0] ------- [8:0 1:0 32 0] [13 0] 0 0
s 1.365020530 _8_ RTR  --- 65 ack 40 [0 0 0 0] ------- [8:0 1:0 30 1] [13 0] 0 0
r 1.366885239 _1_ AGT  --- 57 ack 40 [13a 1 8 800] ------- [8:0 1:0 30 1] [10 0] 1 0
s 1.366885239 _1_ AGT  --- 66 tcp 1540 [0 0 0 0] ------- [1:0 8:0 32 0] [21 0] 0 0
r 1.366885239 _1_ RTR  --- 66 tcp 1540 [0 0 0 0] ------- [1:0 8:0 32 0] [21 0] 0 0
s 1.366885239 _1_ AGT  --- 67 tcp 1540 [0 0 0 0] ------- [1:0 8:0 32 0] [22 0] 0 0
r 1.366885239 _1_ RTR  --- 67 tcp 1540 [0 0 0 0] ------- [1:0 8:0 32 0] [22 0] 0 0
s 1.366885239 _1_ RTR  --- 66 tcp 1540 [0 0 0 0] ------- [1:0 8:0 30 8] [21 0] 0 0
s 1.366885239 _1_ RTR  --- 67 tcp 1540 [0 0 0 0] ------- [1:0 8:0 30 8] [22 0] 0 0
r 1.368750183 _1_ AGT  --- 61 ack 40 [13a 1 8 800] ------- [8:0 1:0 30 1] [11 0] 1 0
s 1.368750183 _1_ AGT  --- 68 tcp 1540 [0 0 0 0] ------- [1:0 8:0 32 0] [23 0] 0 0
r 1.368750183 _1_ RTR  --- 68 tcp 1540 [0 0 0 0] ------- [1:0 8:0 32 0] [23 0] 0 0
s 1.368750183 _1_ AGT  --- 69 tcp 1540 [0 0 0 0] ------- [1:0 8:0 32 0] [24 0] 0 0
r 1.368750183 _1_ RTR  --- 69 tcp 1540 [0 0 0 0] ------- [1:0 8:0 32 0] [24 0] 0 0
s 1.368750183 _1_ RTR  --- 68 tcp 1540 [0 0 0 0] ------- [1:0 8:0 30 8] [23 0] 0 0
s 1.368750183 _1_ RTR  --- 69 tcp 1540 [0 0 0 0] ------- [1:0 8:0 30 8] [24 0] 0 0
r 1.382834892 _8_ AGT  --- 54 tcp 1540 [13a 8 1 800] ------- [1:0 8:0 30 8] [14 0] 1 0
s 1.382834892 _8_ AGT  --- 70 ack 40 [0 0 0 0] ------- [8:0 1:0 32 0] [14 0] 0 0
r 1.382834892 _8_ RTR  --- 70 ack 40 [0 0 0 0] ------- [8:0 1:0 32 0] [14 0] 0 0
s 1.382834892 _8_ RTR  --- 70 ack 40 [0 0 0 0] ------- [8:0 1:0 30 1] [14 0] 0 0
r 1.396879837 _8_ AGT  --- 55 tcp 1540 [13a 8 1 800] ------- [1:0 8:0 30 8] [15 0] 1 0
s 1.396879837 _8_ AGT  --- 71 ack 40 [0 0 0 0] ------- [8:0 1:0 32 0] [15 0] 0 0
r 1.396879837 _8_ RTR  --- 71 ack 40 [0 0 0 0] ------- [8:0 1:0 32 0] [15 0] 0 0
s 1.396879837 _8_ RTR  --- 71 ack 40 [0 0 0 0] ------- [8:0 1:0 30 1] [15 0] 0 0
r 1.398804545 _1_ AGT  --- 62 ack 40 [13a 1 8 800] ------- [8:0 1:0 30 1] [12 0] 1 0
s 1.398804545 _1_ AGT  --- 72 tcp 1540 [0 0 0 0] ------- [1:0 8:0 32 0] [25 0] 0 0
r 1.398804545 _1_ RTR  --- 72 tcp 1540 [0 0 0 0] ------- [1:0 8:0 32 0] [25 0] 0 0
s 1.398804545 _1_ AGT  --- 73 tcp 1540 [0 0 0 0] ------- [1:0 8:0 32 0] [26 0] 0 0
r 1.398804545 _1_ RTR  --- 73 tcp 1540 [0 0 0 0] ------- [1:0 8:0 32 0] [26 0] 0 0
s 1.398804545 _1_ RTR  --- 72 tcp 1540 [0 0 0 0] ------- [1:0 8:0 30 8] [25 0] 0 0
s 1.398804545 _1_ RTR  --- 73 tcp 1540 [0 0 0 0] ------- [1:0 8:0 30 8] [26 0] 0 0
r 1.412709254 _8_ AGT  --- 56 tcp 1540 [13a 8 1 800] ------- [1:0 8:0 30 8] [16 0] 1 0
s 1.412709254 _8_ AGT  --- 74 ack 40 [0 0 0 0] ------- [8:0 1:0 32 0] [16 0] 0 0
r 1.412709254 _8_ RTR  --- 74 ack 40 [0 0 0 0] ------- [8:0 1:0 32 0] [16 0] 0 0
s 1.412709254 _8_ RTR  --- 74 ack 40 [0 0 0 0] ------- [8:0 1:0 30 1] [16 0] 0 0
r 1.414613963 _1_ AGT  --- 65 ack 40 [13a 1 8 800] ------- [8:0 1:0 30 1] [13 0] 1 0
s 1.414613963 _1_ AGT  --- 75 tcp 1540 [0 0 0 0] ------- [1:0 8:0 32 0] [27 0] 0 0
r 1.414613963 _1_ RTR  --- 75 tcp 1540 [0 0 0 0] ------- [1:0 8:0 32 0] [27 0] 0 0
s 1.414613963 _1_ AGT  --- 76 tcp 1540 [0 0 0 0] ------- [1:0 8:0 32 0] [28 0] 0 0
r 1.414613963 _1_ RTR  --- 76 tcp 1540 [0 0 0 0] ------- [1:0 8:0 32 0] [28 0] 0 0
s 1.414613963 _1_ RTR  --- 75 tcp 1540 [0 0 0 0] ------- [1:0 8:0 30 8] [27 0] 0 0
s 1.414613963 _1_ RTR  --- 76 tcp 1540 [0 0 0 0] ------- [1:0 8:0 30 8] [28 0] 0 0
r 1.428798672 _8_ AGT  --- 58 tcp 1540 [13a 8 1 800] ------- [1:0 8:0 30 8] [17 0] 1 0
s 1.428798672 _8_ AGT  --- 77 ack 40 [0 0 0 0] ------- [8:0 1:0 32 0] [17 0] 0 0
r 1.428798672 _8_ RTR  --- 77 ack 40 [0 0 0 0] ------- [8:0 1:0 32 0] [17 0] 0 0
s 1.428798672 _8_ RTR  --- 77 ack 40 [0 0 0 0] ------- [8:0 1:0 30 1] [17 0] 0 0
r 1.430663381 _1_ AGT  --- 70 ack 40 [13a 1 8 800] ------- [8:0 1:0 30 1] [14 0] 1 0
s 1.430663381 _1_ AGT  --- 78 tcp 1540 [0 0 0 0] ------- [1:0 8:0 32 0] [29 0] 0 0
r 1.430663381 _1_ RTR  --- 78 tcp 1540 [0 0 0 0] ------- [1:0 8:0 32 0] [29 0] 0 0
s 1.430663381 _1_ AGT  --- 79 tcp 1540 [0 0 0 0] ------- [1:0 8:0 32 0] [30 0] 0 0
r 1.430663381 _1_ RTR  --- 79 tcp 1540 [0 0 0 0] ------- [1:0 8:0 32 0] [30 0] 0 0
s 1.430663381 _1_ RTR  --- 78 tcp 1540 [0 0 0 0] ------- [1:0 8:0 30 8] [29 0] 0 0
s 1.430663381 _1_ RTR  --- 79 tcp 1540 [0 0 0 0] ------- [1:0 8:0 30 8] [30 0] 0 0
r 1.444568090 _8_ AGT  --- 59 tcp 1540 [13a 8 1 800] ------- [1:0 8:0 30 8] [18 0] 1 0
s 1.444568090 _8_ AGT  --- 80 ack 40 [0 0 0 0] ------- [8:0 1:0 32 0] [18 0] 0 0
r 1.444568090 _8_ RTR  --- 80 ack 40 [0 0 0 0] ------- [8:0 1:0 32 0] [18 0] 0 0
s 1.444568090 _8_ RTR  --- 80 ack 40 [0 0 0 0] ------- [8:0 1:0 30 1] [18 0] 0 0
r 1.446472799 _1_ AGT  --- 71 ack 40 [13a 1 8 800] ------- [8:0 1:0 30 1] [15 0] 1 0
s 1.446472799 _1_ AGT  --- 81 tcp 1540 [0 0 0 0] ------- [1:0 8:0 32 0] [31 0] 0 0
r 1.446472799 _1_ RTR  --- 81 tcp 1540 [0 0 0 0] ------- [1:0 8:0 32 0] [31 0] 0 0
s 1.446472799 _1_ AGT  --- 82 tcp 1540 [0 0 0 0] ------- [1:0 8:0 32 0] [32 0] 0 0
r 1.446472799 _1_ RTR  --- 82 tcp 1540 [0 0 0 0] ------- [1:0 8:0 32 0] [32 0] 0 0
s 1.446472799 _1_ RTR  --- 81 tcp 1540 [0 0 0 0] ------- [1:0 8:0 30 8] [31 0] 0 0
s 1.446472799 _1_ RTR  --- 82 tcp 1540 [0 0 0 0] ------- [1:0 8:0 30 8] [32 0] 0 0
r 1.448297745 _1_ AGT  --- 74 ack 40 [13a 1 8 800] ------- [8:0 1:0 30 1] [16 0] 1 0
s 1.448297745 _1_ AGT  --- 83 tcp 1540 [0 0 0 0] ------- [1:0 8:0 32 0] [33 0] 0 0
r 1.448297745 _1_ RTR  --- 83 tcp 1540 [0 0 0 0] ------- [1:0 8:0 32 0] [33 0] 0 0
s 1.448297745 _1_ AGT  --- 84 tcp 1540 [0 0 0 0] ------- [1:0 8:0 32 0] [34 0] 0 0
r 1.448297745 _1_ RTR  --- 84 tcp 1540 [0 0 0 0] ------- [1:0 8:0 32 0] [34 0] 0 0
s 1.448297745 _1_ RTR  --- 83 tcp 1540 [0 0 0 0] ------- [1:0 8:0 30 8] [33 0] 0 0
s 1.448297745 _1_ RTR  --- 84 tcp 1540 [0 0 0 0] ------- [1:0 8:0 30 8] [34 0] 0 0
r 1.450497728 _3_ RTR  --- 0 AODV 48 [0 ffffffff 5 800] ------- [5:255 -1:255 29 0] [0x2 2 1 [6 0] [3 4]] (REQUEST)
r 1.464412925 _9_ AGT  --- 19 tcp 1540 [13a 9 0 800] ------- [0:0 9:0 30 9] [10 0] 1 0
s 1.464412925 _9_ AGT  --- 85 ack 40 [0 0 0 0] ------- [9:0 0:0 32 0] [10 0] 0 0
r 1.464412925 _9_ RTR  --- 85 ack 40 [0 0 0 0] ------- [9:0 0:0 32 0] [10 0] 0 0