n -t * -s 0  -x 897 -y 96 -Z 0 -z 25  -v circle -c black
n -t * -s 1  -x 652 -y 366 -Z 0 -z 25  -v circle -c black
n -t * -s 2  -x 526 -y 575 -Z 0 -z 25  -v circle -c black
n -t * -s 3  -x 898 -y 258 -Z 0 -z 25  -v circle -c black
n -t * -s 4  -x 471 -y 959 -Z 0 -z 25  -v circle -c black
n -t * -s 5  -x 944 -y 485 -Z 0 -z 25  -v circle -c black
n -t * -s 6  -x 412 -y 354 -Z 0 -z 25  -v circle -c black
n -t * -s 7  -x 880 -y 833 -Z 0 -z 25  -v circle -c black
n -t * -s 8  -x 660 -y 436 -Z 0 -z 25  -v circle -c black
n -t * -s 9  -x 944 -y 144 -Z 0 -z 25  -v circle -c black
V -t * -v 1.0a5 -a 0
W -t * -x 1000 -y 1000
A -t * -n 1 -p 0 -o 0x7fffffff -c 30 -a 1
A -t * -h 1 -m 1073741823 -s 0
n -t 1.000000 -s 0 -x 897.000000 -y 96.000000 -U -6.887035 -V 5.793855 -T 64.033363
n -t 1.000000 -s 1 -x 652.000000 -y 366.000000 -U -5.543376 -V -2.295862 -T 84.064294
n -t 1.000000 -s 2 -x 526.000000 -y 575.000000 -U 6.421223 -V -4.771572 -T 56.375554
n -t 1.000000 -s 3 -x 898.000000 -y 258.000000 -U -4.960566 -V -0.626722 -T 169.133911
n -t 1.000000 -s 4 -x 471.000000 -y 959.000000 -U -5.522884 -V -4.300901 -T 83.470880
n -t 1.000000 -s 5 -x 944.000000 -y 485.000000 -U -0.047616 -V 3.999717 -T 105.007440
n -t 1.000000 -s 6 -x 412.000000 -y 354.000000 -U 8.431833 -V 3.147093 -T 67.363763
n -t 1.000000 -s 7 -x 880.000000 -y 833.000000 -U -5.756900 -V -6.917955 -T 82.683391
n -t 1.000000 -s 8 -x 660.000000 -y 436.000000 -U -2.539382 -V -1.597353 -T 146.492321
n -t 1.000000 -s 9 -x 944.000000 -y 144.000000 -U -1.768590 -V 0.933857 -T 383.356231
+ -t 1.000000000 -s 0 -d -1 -p tcp -e 40 -c 2 -a 0 -i 0 -k AGT 
- -t 1.000000000 -s 0 -d -1 -p tcp -e 40 -c 2 -a 0 -i 0 -k AGT
h -t 1.000000000 -s 0 -d -1 -p tcp -e 40 -c 2 -a 0 -i 0 -k AGT
+ -t 1.000000000 -s 1 -d -1 -p tcp -e 40 -c 2 -a 0 -i 1 -k AGT 
- -t 1.000000000 -s 1 -d -1 -p tcp -e 40 -c 2 -a 0 -i 1 -k AGT
h -t 1.000000000 -s 1 -d -1 -p tcp -e 40 -c 2 -a 0 -i 1 -k AGT
+ -t 1.000000000 -s 2 -d -1 -p tcp -e 40 -c 2 -a 0 -i 2 -k AGT 
- -t 1.000000000 -s 2 -d -1 -p tcp -e 40 -c 2 -a 0 -i 2 -k AGT
h -t 1.000000000 -s 2 -d -1 -p tcp -e 40 -c 2 -a 0 -i 2 -k AGT
+ -t 1.000000000 -s 3 -d -1 -p tcp -e 40 -c 2 -a 0 -i 3 -k AGT 
- -t 1.000000000 -s 3 -d -1 -p tcp -e 40 -c 2 -a 0 -i 3 -k AGT
h -t 1.000000000 -s 3 -d -1 -p tcp -e 40 -c 2 -a 0 -i 3 -k AGT
+ -t 1.000000000 -s 4 -d -1 -p tcp -e 40 -c 2 -a 0 -i 4 -k AGT 
- -t 1.000000000 -s 4 -d -1 -p tcp -e 40 -c 2 -a 0 -i 4 -k AGT
h -t 1.000000000 -s 4 -d -1 -p tcp -e 40 -c 2 -a 0 -i 4 -k AGT
+ -t 1.000000000 -s 0 -d -1 -p AODV -e 48 -c 2 -a 0 -i 0 -k RTR 
- -t 1.000000000 -s 0 -d -1 -p AODV -e 48 -c 2 -a 0 -i 0 -k RTR
h -t 1.000000000 -s 0 -d -1 -p AODV -e 48 -c 2 -a 0 -i 0 -k RTR
+ -t 1.000000000 -s 1 -d -1 -p AODV -e 48 -c 2 -a 0 -i 0 -k RTR 
- -t 1.000000000 -s 1 -d -1 -p AODV -e 48 -c 2 -a 0 -i 0 -k RTR
h -t 1.000000000 -s 1 -d -1 -p AODV -e 48 -c 2 -a 0 -i 0 -k RTR
+ -t 1.000000000 -s 2 -d -1 -p AODV -e 48 -c 2 -a 0 -i 0 -k RTR 
- -t 1.000000000 -s 2 -d -1 -p AODV -e 48 -c 2 -a 0 -i 0 -k RTR
h -t 1.000000000 -s 2 -d -1 -p AODV -e 48 -c 2 -a 0 -i 0 -k RTR
+ -t 1.000000000 -s 3 -d -1 -p AODV -e 48 -c 2 -a 0 -i 0 -k RTR 
- -t 1.000000000 -s 3 -d -1 -p AODV -e 48 -c 2 -a 0 -i 0 -k RTR
h -t 1.000000000 -s 3 -d -1 -p AODV -e 48 -c 2 -a 0 -i 0 -k RTR
+ -t 1.000000000 -s 4 -d -1 -p AODV -e 48 -c 2 -a 0 -i 0 -k RTR 
- -t 1.000000000 -s 4 -d -1 -p AODV -e 48 -c 2 -a 0 -i 0 -k RTR
h -t 1.000000000 -s 4 -d -1 -p AODV -e 48 -c 2 -a 0 -i 0 -k RTR
r -t 1.000948224 -s 9 -d -1 -p AODV -e 48 -c 2 -a 0 -i 0 -k RTR
+ -t 1.000948224 -s 9 -d 0 -p AODV -e 44 -c 2 -a 0 -i 0 -k RTR 
- -t 1.000948224 -s 9 -d 0 -p AODV -e 44 -c 2 -a 0 -i 0 -k RTR
h -t 1.000948224 -s 9 -d 0 -p AODV -e 44 -c 2 -a 0 -i 0 -k RTR
r -t 1.000948540 -s 3 -d -1 -p AODV -e 48 -c 2 -a 0 -i 0 -k RTR
r -t 1.004623939 -s 9 -d -1 -p AODV -e 48 -c 2 -a 0 -i 0 -k RTR
r -t 1.004624069 -s 0 -d -1 -p AODV -e 48 -c 2 -a 0 -i 0 -k RTR
r -t 1.004624302 -s 5 -d -1 -p AODV -e 48 -c 2 -a 0 -i 0 -k RTR
+ -t 1.005565328 -s 9 -d -1 -p AODV -e 48 -c 2 -a 0 -i 0 -k RTR 
- -t 1.005565328 -s 9 -d -1 -p AODV -e 48 -c 2 -a 0 -i 0 -k RTR
h -t 1.005565328 -s 9 -d -1 -p AODV -e 48 -c 2 -a 0 -i 0 -k RTR
+ -t 1.006366611 -s 0 -d 9 -p tcp -e 40 -c 2 -a 0 -i 0 -k RTR 
- -t 1.006366611 -s 0 -d 9 -p tcp -e 40 -c 2 -a 0 -i 0 -k RTR
h -t 1.006366611 -s 0 -d 9 -p tcp -e 40 -c 2 -a 0 -i 0 -k RTR
r -t 1.007599059 -s 0 -d -1 -p AODV -e 48 -c 2 -a 0 -i 0 -k RTR
r -t 1.007599245 -s 3 -d -1 -p AODV -e 48 -c 2 -a 0 -i 0 -k RTR
+ -t 1.008111712 -s 5 -d -1 -p AODV -e 48 -c 2 -a 0 -i 0 -k RTR 
- -t 1.008111712 -s 5 -d -1 -p AODV -e 48 -c 2 -a 0 -i 0 -k RTR
h -t 1.008111712 -s 5 -d -1 -p AODV -e 48 -c 2 -a 0 -i 0 -k RTR
r -t 1.009309731 -s 9 -d 9 -p tcp -e 40 -c 2 -a 0 -i 0 -k AGT
+ -t 1.009309731 -s 9 -d -1 -p ack -e 40 -c 2 -a 0 -i 5 -k AGT 
- -t 1.009309731 -s 9 -d -1 -p ack -e 40 -c 2 -a 0 -i 5 -k AGT
h -t 1.009309731 -s 9 -d -1 -p ack -e 40 -c 2 -a 0 -i 5 -k AGT
+ -t 1.009309731 -s 9 -d 0 -p ack -e 40 -c 2 -a 0 -i 5 -k RTR 
- -t 1.009309731 -s 9 -d 0 -p ack -e 40 -c 2 -a 0 -i 5 -k RTR
h -t 1.009309731 -s 9 -d 0 -p ack -e 40 -c 2 -a 0 -i 5 -k RTR
+ -t 1.009311775 -s 3 -d -1 -p AODV -e 48 -c 2 -a 0 -i 0 -k RTR 
- -t 1.009311775 -s 3 -d -1 -p AODV -e 48 -c 2 -a 0 -i 0 -k RTR
h -t 1.009311775 -s 3 -d -1 -p AODV -e 48 -c 2 -a 0 -i 0 -k RTR
r -t 1.011174402 -s 0 -d 0 -p ack -e 40 -c 2 -a 0 -i 5 -k AGT
+ -t 1.011174402 -s 0 -d -1 -p tcp -e 1540 -c 2 -a 0 -i 6 -k AGT 
- -t 1.011174402 -s 0 -d -1 -p tcp -e 1540 -c 2 -a 0 -i 6 -k AGT
h -t 1.011174402 -s 0 -d -1 -p tcp -e 1540 -c 2 -a 0 -i 6 -k AGT
+ -t 1.011174402 -s 0 -d -1 -p tcp -e 1540 -c 2 -a 0 -i 7 -k AGT 
- -t 1.011174402 -s 0 -d -1 -p tcp -e 1540 -c 2 -a 0 -i 7 -k AGT
h -t 1.011174402 -s 0 -d -1 -p tcp -e 1540 -c 2 -a 0 -i 7 -k AGT
+ -t 1.011174402 -s 0 -d 9 -p tcp -e 1540 -c 2 -a 0 -i 6 -k RTR 
- -t 1.011174402 -s 0 -d 9 -p tcp -e 1540 -c 2 -a 0 -i 6 -k RTR
h -t 1.011174402 -s 0 -d 9 -p tcp -e 1540 -c 2 -a 0 -i 6 -k RTR
+ -t 1.011174402 -s 0 -d 9 -p tcp -e 1540 -c 2 -a 0 -i 7 -k RTR 
- -t 1.011174402 -s 0 -d 9 -p tcp -e 1540 -c 2 -a 0 -i 7 -k RTR
h -t 1.011174402 -s 0 -d 9 -p tcp -e 1540 -c 2 -a 0 -i 7 -k RTR
r -t 1.012427352 -s 9 -d -1 -p AODV -e 48 -c 2 -a 0 -i 0 -k RTR
r -t 1.012427482 -s 0 -d -1 -p AODV -e 48 -c 2 -a 0 -i 0 -k RTR
r -t 1.012427714 -s 5 -d -1 -p AODV -e 48 -c 2 -a 0 -i 0 -k RTR
+ -t 1.012694355 -s 0 -d -1 -p AODV -e 48 -c 2 -a 0 -i 0 -k RTR 
- -t 1.012694355 -s 0 -d -1 -p AODV -e 48 -c 2 -a 0 -i 0 -k RTR
h -t 1.012694355 -s 0 -d -1 -p AODV -e 48 -c 2 -a 0 -i 0 -k RTR
+ -t 1.014599309 -s 5 -d -1 -p AODV -e 48 -c 2 -a 0 -i 0 -k RTR 
- -t 1.014599309 -s 5 -d -1 -p AODV -e 48 -c 2 -a 0 -i 0 -k RTR
h -t 1.014599309 -s 5 -d -1 -p AODV -e 48 -c 2 -a 0 -i 0 -k RTR
r -t 1.026038154 -s 9 -d 9 -p tcp -e 1540 -c 2 -a 0 -i 6 -k AGT
+ -t 1.026038154 -s 9 -d -1 -p ack -e 40 -c 2 -a 0 -i 8 -k AGT 
- -t 1.026038154 -s 9 -d -1 -p ack -e 40 -c 2 -a 0 -i 8 -k AGT
h -t 1.026038154 -s 9 -d -1 -p ack -e 40 -c 2 -a 0 -i 8 -k AGT
+ -t 1.026038154 -s 9 -d 0 -p ack -e 40 -c 2 -a 0 -i 8 -k RTR 
- -t 1.026038154 -s 9 -d 0 -p ack -e 40 -c 2 -a 0 -i 8 -k RTR
h -t 1.026038154 -s 9 -d 0 -p ack -e 40 -c 2 -a 0 -i 8 -k RTR
r -t 1.027610602 -s 9 -d -1 -p AODV -e 48 -c 2 -a 0 -i 0 -k RTR
r -t 1.027610917 -s 3 -d -1 -p AODV -e 48 -c 2 -a 0 -i 0 -k RTR
r -t 1.041161050 -s 9 -d 9 -p tcp -e 1540 -c 2 -a 0 -i 7 -k AGT
+ -t 1.041161050 -s 9 -d -1 -p ack -e 40 -c 2 -a 0 -i 9 -k AGT 
- -t 1.041161050 -s 9 -d -1 -p ack -e 40 -c 2 -a 0 -i 9 -k AGT
h -t 1.041161050 -s 9 -d -1 -p ack -e 40 -c 2 -a 0 -i 9 -k AGT
+ -t 1.041161050 -s 9 -d 0 -p ack -e 40 -c 2 -a 0 -i 9 -k RTR 
- -t 1.041161050 -s 9 -d 0 -p ack -e 40 -c 2 -a 0 -i 9 -k RTR
h -t 1.041161050 -s 9 -d 0 -p ack -e 40 -c 2 -a 0 -i 9 -k RTR
r -t 1.043025721 -s 0 -d 0 -p ack -e 40 -c 2 -a 0 -i 8 -k AGT
+ -t 1.043025721 -s 0 -d -1 -p tcp -e 1540 -c 2 -a 0 -i 10 -k AGT 
- -t 1.043025721 -s 0 -d -1 -p tcp -e 1540 -c 2 -a 0 -i 10 -k AGT
h -t 1.043025721 -s 0 -d -1 -p tcp -e 1540 -c 2 -a 0 -i 10 -k AGT
+ -t 1.043025721 -s 0 -d -1 -p tcp -e 1540 -c 2 -a 0 -i 11 -k AGT 
- -t 1.043025721 -s 0 -d -1 -p tcp -e 1540 -c 2 -a 0 -i 11 -k AGT
h -t 1.043025721 -s 0 -d -1 -p tcp -e 1540 -c 2 -a 0 -i 11 -k AGT
+ -t 1.043025721 -s 0 -d 9 -p tcp -e 1540 -c 2 -a 0 -i 10 -k RTR 
- -t 1.043025721 -s 0 -d 9 -p tcp -e 1540 -c 2 -a 0 -i 10 -k RTR
h -t 1.043025721 -s 0 -d 9 -p tcp -e 1540 -c 2 -a 0 -i 10 -k RTR
+ -t 1.043025721 -s 0 -d 9 -p tcp -e 1540 -c 2 -a 0 -i 11 -k RTR 
- -t 1.043025721 -s 0 -d 9 -p tcp -e 1540 -c 2 -a 0 -i 11 -k RTR
h -t 1.043025721 -s 0 -d 9 -p tcp -e 1540 -c 2 -a 0 -i 11 -k RTR
r -t 1.057110393 -s 9 -d 9 -p tcp -e 1540 -c 2 -a 0 -i 10 -k AGT
+ -t 1.057110393 -s 9 -d -1 -p ack -e 40 -c 2 -a 0 -i 12 -k AGT 
- -t 1.057110393 -s 9 -d -1 -p ack -e 40 -c 2 -a 0 -i 12 -k AGT
h -t 1.057110393 -s 9 -d -1 -p ack -e 40 -c 2 -a 0 -i 12 -k AGT
+ -t 1.057110393 -s 9 -d 0 -p ack -e 40 -c 2 -a 0 -i 12 -k RTR 
- -t 1.057110393 -s 9 -d 0 -p ack -e 40 -c 2 -a 0 -i 12 -k RTR
h -t 1.057110393 -s 9 -d 0 -p ack -e 40 -c 2 -a 0 -i 12 -k RTR
r -t 1.059035065 -s 0 -d 0 -p ack -e 40 -c 2 -a 0 -i 9 -k AGT
+ -t 1.059035065 -s 0 -d -1 -p tcp -e 1540 -c 2 -a 0 -i 13 -k AGT 
- -t 1.059035065 -s 0 -d -1 -p tcp -e 1540 -c 2 -a 0 -i 13 -k AGT
h -t 1.059035065 -s 0 -d -1 -p tcp -e 1540 -c 2 -a 0 -i 13 -k AGT
+ -t 1.059035065 -s 0 -d -1 -p tcp -e 1540 -c 2 -a 0 -i 14 -k AGT 
- -t 1.059035065 -s 0 -d -1 -p tcp -e 1540 -c 2 -a 0 -i 14 -k AGT
h -t 1.059035065 -s 0 -d -1 -p tcp -e 1540 -c 2 -a 0 -i 14 -k AGT
+ -t 1.059035065 -s 0 -d 9 -p tcp -e 1540 -c 2 -a 0 -i 13 -k RTR 
- -t 1.059035065 -s 0 -d 9 -p tcp -e 1540 -c 2 -a 0 -i 13 -k RTR
h -t 1.059035065 -s 0 -d 9 -p tcp -e 1540 -c 2 -a 0 -i 13 -k RTR
+ -t 1.059035065 -s 0 -d 9 -p tcp -e 1540 -c 2 -a 0 -i 14 -k RTR 
- -t 1.059035065 -s 0 -d 9 -p tcp -e 1540 -c 2 -a 0 -i 14 -k RTR
h -t 1.059035065 -s 0 -d 9 -p tcp -e 1540 -c 2 -a 0 -i 14 -k RTR
r -t 1.072899737 -s 9 -d 9 -p tcp -e 1540 -c 2 -a 0 -i 11 -k AGT
+ -t 1.072899737 -s 9 -d -1 -p ack -e 40 -c 2 -a 0 -i 15 -k AGT 
- -t 1.072899737 -s 9 -d -1 -p ack -e 40 -c 2 -a 0 -i 15 -k AGT
h -t 1.072899737 -s 9 -d -1 -p ack -e 40 -c 2 -a 0 -i 15 -k AGT
+ -t 1.072899737 -s 9 -d 0 -p ack -e 40 -c 2 -a 0 -i 15 -k RTR 
- -t 1.072899737 -s 9 -d 0 -p ack -e 40 -c 2 -a 0 -i 15 -k RTR
h -t 1.072899737 -s 9 -d 0 -p ack -e 40 -c 2 -a 0 -i 15 -k RTR
r -t 1.074764409 -s 0 -d 0 -p ack -e 40 -c 2 -a 0 -i 12 -k AGT
+ -t 1.074764409 -s 0 -d -1 -p tcp -e 1540 -c 2 -a 0 -i 16 -k AGT 
- -t 1.074764409 -s 0 -d -1 -p tcp -e 1540 -c 2 -a 0 -i 16 -k AGT
h -t 1.074764409 -s 0 -d -1 -p tcp -e 1540 -c 2 -a 0 -i 16 -k AGT
+ -t 1.074764409 -s 0 -d -1 -p tcp -e 1540 -c 2 -a 0 -i 17 -k AGT 
- -t 1.074764409 -s 0 -d -1 -p tcp -e 1540 -c 2 -a 0 -i 17 -k AGT
h -t 1.074764409 -s 0 -d -1 -p tcp -e 1540 -c 2 -a 0 -i 17 -k AGT
+ -t 1.074764409 -s 0 -d 9 -p tcp -e 1540 -c 2 -a 0 -i 16 -k RTR 
- -t 1.074764409 -s 0 -d 9 -p tcp -e 1540 -c 2 -a 0 -i 16 -k RTR
h -t 1.074764409 -s 0 -d 9 -p tcp -e 1540 -c 2 -a 0 -i 16 -k RTR
+ -t 1.074764409 -s 0 -d 9 -p tcp -e 1540 -c 2 -a 0 -i 17 -k RTR 
- -t 1.074764409 -s 0 -d 9 -p tcp -e 1540 -c 2 -a 0 -i 17 -k RTR
h -t 1.074764409 -s 0 -d 9 -p tcp -e 1540 -c 2 -a 0 -i 17 -k RTR
r -t 1.076789305 -s 0 -d 0 -p ack -e 40 -c 2 -a 0 -i 15 -k AGT
+ -t 1.076789305 -s 0 -d -1 -p tcp -e 1540 -c 2 -a 0 -i 18 -k AGT 
- -t 1.076789305 -s 0 -d -1 -p tcp -e 1540 -c 2 -a 0 -i 18 -k AGT
h -t 1.076789305 -s 0 -d -1 -p tcp -e 1540 -c 2 -a 0 -i 18 -k AGT
+ -t 1.076789305 -s 0 -d -1 -p tcp -e 1540 -c 2 -a 0 -i 19 -k AGT 
- -t 1.076789305 -s 0 -d -1 -p tcp -e 1540 -c 2 -a 0 -i 19 -k AGT
h -t 1.076789305 -s 0 -d -1 -p tcp -e 1540 -c 2 -a 0 -i 19 -k AGT
+ -t 1.076789305 -s 0 -d 9 -p tcp -e 1540 -c 2 -a 0 -i 18 -k RTR 
- -t 1.076789305 -s 0 -d 9 -p tcp -e 1540 -c 2 -a 0 -i 18 -k RTR
h -t 1.076789305 -s 0 -d 9 -p tcp -e 1540 -c 2 -a 0 -i 18 -k RTR
+ -t 1.076789305 -s 0 -d 9 -p tcp -e 1540 -c 2 -a 0 -i 19 -k RTR 
- -t 1.076789305 -s 0 -d 9 -p tcp -e 1540 -c 2 -a 0 -i 19 -k RTR
h -t 1.076789305 -s 0 -d 9 -p tcp -e 1540 -c 2 -a 0 -i 19 -k RTR
r -t 1.090653977 -s 9 -d 9 -p tcp -e 1540 -c 2 -a 0 -i 13 -k AGT
+ -t 1.090653977 -s 9 -d -1 -p ack -e 40 -c 2 -a 0 -i 20 -k AGT 
- -t 1.090653977 -s 9 -d -1 -p ack -e 40 -c 2 -a 0 -i 20 -k AGT
h -t 1.090653977 -s 9 -d -1 -p ack -e 40 -c 2 -a 0 -i 20 -k AGT
+ -t 1.090653977 -s 9 -d 0 -p ack -e 40 -c 2 -a 0 -i 20 -k RTR 
- -t 1.090653977 -s 9 -d 0 -p ack -e 40 -c 2 -a 0 -i 20 -k RTR
h -t 1.090653977 -s 9 -d 0 -p ack -e 40 -c 2 -a 0 -i 20 -k RTR
r -t 1.092538649 -s 0 -d 0 -p ack -e 40 -c 2 -a 0 -i 20 -k AGT
+ -t 1.092538649 -s 0 -d -1 -p tcp -e 1540 -c 2 -a 0 -i 21 -k AGT 
- -t 1.092538649 -s 0 -d -1 -p tcp -e 1540 -c 2 -a 0 -i 21 -k AGT
h -t 1.092538649 -s 0 -d -1 -p tcp -e 1540 -c 2 -a 0 -i 21 -k AGT
+ -t 1.092538649 -s 0 -d -1 -p tcp -e 1540 -c 2 -a 0 -i 22 -k AGT 
- -t 1.092538649 -s 0 -d -1 -p tcp -e 1540 -c 2 -a 0 -i 22 -k AGT
h -t 1.092538649 -s 0 -d -1 -p tcp -e 1540 -c 2 -a 0 -i 22 -k AGT
+ -t 1.092538649 -s 0 -d 9 -p tcp -e 1540 -c 2 -a 0 -i 21 -k RTR 
- -t 1.092538649 -s 0 -d 9 -p tcp -e 1540 -c 2 -a 0 -i 21 -k RTR
h -t 1.092538649 -s 0 -d 9 -p tcp -e 1540 -c 2 -a 0 -i 21 -k RTR
+ -t 1.092538649 -s 0 -d 9 -p tcp -e 1540 -c 2 -a 0 -i 22 -k RTR 
- -t 1.092538649 -s 0 -d 9 -p tcp -e 1540 -c 2 -a 0 -i 22 -k RTR
h -t 1.092538649 -s 0 -d 9 -p tcp -e 1540 -c 2 -a 0 -i 22 -k RTR
r -t 1.106823320 -s 9 -d 9 -p tcp -e 1540 -c 2 -a 0 -i 14 -k AGT
+ -t 1.106823320 -s 9 -d -1 -p ack -e 40 -c 2 -a 0 -i 23 -k AGT 
- -t 1.106823320 -s 9 -d -1 -p ack -e 40 -c 2 -a 0 -i 23 -k AGT
h -t 1.106823320 -s 9 -d -1 -p ack -e 40 -c 2 -a 0 -i 23 -k AGT
+ -t 1.106823320 -s 9 -d 0 -p ack -e 40 -c 2 -a 0 -i 23 -k RTR 
- -t 1.106823320 -s 9 -d 0 -p ack -e 40 -c 2 -a 0 -i 23 -k RTR
h -t 1.106823320 -s 9 -d 0 -p ack -e 40 -c 2 -a 0 -i 23 -k RTR
r -t 1.108847992 -s 0 -d 0 -p ack -e 40 -c 2 -a 0 -i 23 -k AGT
+ -t 1.108847992 -s 0 -d -1 -p tcp -e 1540 -c 2 -a 0 -i 24 -k AGT 
- -t 1.108847992 -s 0 -d -1 -p tcp -e 1540 -c 2 -a 0 -i 24 -k AGT
h -t 1.108847992 -s 0 -d -1 -p tcp -e 1540 -c 2 -a 0 -i 24 -k AGT
+ -t 1.108847992 -s 0 -d -1 -p tcp -e 1540 -c 2 -a 0 -i 25 -k AGT 
- -t 1.108847992 -s 0 -d -1 -p tcp -e 1540 -c 2 -a 0 -i 25 -k AGT
h -t 1.108847992 -s 0 -d -1 -p tcp -e 1540 -c 2 -a 0 -i 25 -k AGT
+ -t 1.108847992 -s 0 -d 9 -p tcp -e 1540 -c 2 -a 0 -i 24 -k RTR 
- -t 1.108847992 -s 0 -d 9 -p tcp -e 1540 -c 2 -a 0 -i 24 -k RTR
h -t 1.108847992 -s 0 -d 9 -p tcp -e 1540 -c 2 -a 0 -i 24 -k RTR
+ -t 1.108847992 -s 0 -d 9 -p tcp -e 1540 -c 2 -a 0 -i 25 -k RTR 
- -t 1.108847992 -s 0 -d 9 -p tcp -e 1540 -c 2 -a 0 -i 25 -k RTR
h -t 1.108847992 -s 0 -d 9 -p tcp -e 1540 -c 2 -a 0 -i 25 -k RTR
r -t 1.123052664 -s 9 -d 9 -p tcp -e 1540 -c 2 -a 0 -i 16 -k AGT
+ -t 1.123052664 -s 9 -d -1 -p ack -e 40 -c 2 -a 0 -i 26 -k AGT 
- -t 1.123052664 -s 9 -d -1 -p ack -e 40 -c 2 -a 0 -i 26 -k AGT
h -t 1.123052664 -s 9 -d -1 -p ack -e 40 -c 2 -a 0 -i 26 -k AGT
+ -t 1.123052664 -s 9 -d 0 -p ack -e 40 -c 2 -a 0 -i 26 -k RTR 
- -t 1.123052664 -s 9 -d 0 -p ack -e 40 -c 2 -a 0 -i 26 -k RTR
h -t 1.123052664 -s 9 -d 0 -p ack -e 40 -c 2 -a 0 -i 26 -k RTR
r -t 1.124997336 -s 0 -d 0 -p ack -e 40 -c 2 -a 0 -i 26 -k AGT
+ -t 1.124997336 -s 0 -d -1 -p tcp -e 1540 -c 2 -a 0 -i 27 -k AGT 
- -t 1.124997336 -s 0 -d -1 -p tcp -e 1540 -c 2 -a 0 -i 27 -k AGT
h -t 1.124997336 -s 0 -d -1 -p tcp -e 1540 -c 2 -a 0 -i 27 -k AGT
+ -t 1.124997336 -s 0 -d -1 -p tcp -e 1540 -c 2 -a 0 -i 28 -k AGT 
- -t 1.124997336 -s 0 -d -1 -p tcp -e 1540 -c 2 -a 0 -i 28 -k AGT
h -t 1.124997336 -s 0 -d -1 -p tcp -e 1540 -c 2 -a 0 -i 28 -k AGT
+ -t 1.124997336 -s 0 -d 9 -p tcp -e 1540 -c 2 -a 0 -i 27 -k RTR 
- -t 1.124997336 -s 0 -d 9 -p tcp -e 1540 -c 2 -a 0 -i 27 -k RTR
h -t 1.124997336 -s 0 -d 9 -p tcp -e 1540 -c 2 -a 0 -i 27 -k RTR
+ -t 1.124997336 -s 0 -d 9 -p tcp -e 1540 -c 2 -a 0 -i 28 -k RTR 
- -t 1.124997336 -s 0 -d 9 -p tcp -e 1540 -c 2 -a 0 -i 28 -k RTR
h -t 1.124997336 -s 0 -d 9 -p tcp -e 1540 -c 2 -a 0 -i 28 -k RTR
r -t 1.139042008 -s 9 -d 9 -p tcp -e 1540 -c 2 -a 0 -i 17 -k AGT
+ -t 1.139042008 -s 9 -d -1 -p ack -e 40 -c 2 -a 0 -i 29 -k AGT 
- -t 1.139042008 -s 9 -d -1 -p ack -e 40 -c 2 -a 0 -i 29 -k AGT
h -t 1.139042008 -s 9 -d -1 -p ack -e 40 -c 2 -a 0 -i 29 -k AGT
+ -t 1.139042008 -s 9 -d 0 -p ack -e 40 -c 2 -a 0 -i 29 -k RTR 
- -t 1.139042008 -s 9 -d 0 -p ack -e 40 -c 2 -a 0 -i 29 -k RTR
h -t 1.139042008 -s 9 -d 0 -p ack -e 40 -c 2 -a 0 -i 29 -k RTR
r -t 1.141381680 -s 8 -d -1 -p AODV -e 48 -c 2 -a 0 -i 0 -k RTR
+ -t 1.141381680 -s 8 -d 1 -p AODV -e 44 -c 2 -a 0 -i 0 -k RTR 
- -t 1.141381680 -s 8 -d 1 -p AODV -e 44 -c 2 -a 0 -i 0 -k RTR
h -t 1.141381680 -s 8 -d 1 -p AODV -e 44 -c 2 -a 0 -i 0 -k RTR
r -t 1.141382239 -s 6 -d -1 -p AODV -e 48 -c 2 -a 0 -i 0 -k RTR
r -t 1.141382254 -s 2 -d -1 -p AODV -e 48 -c 2 -a 0 -i 0 -k RTR
+ -t 1.145901327 -s 1 -d 8 -p tcp -e 40 -c 2 -a 0 -i 1 -k RTR 
- -t 1.145901327 -s 1 -d 8 -p tcp -e 40 -c 2 -a 0 -i 1 -k RTR
h -t 1.145901327 -s 1 -d 8 -p tcp -e 40 -c 2 -a 0 -i 1 -k RTR
+ -t 1.146830458 -s 6 -d -1 -p AODV -e 48 -c 2 -a 0 -i 0 -k RTR 
- -t 1.146830458 -s 6 -d -1 -p AODV -e 48 -c 2 -a 0 -i 0 -k RTR
h -t 1.146830458 -s 6 -d -1 -p AODV -e 48 -c 2 -a 0 -i 0 -k RTR
r -t 1.147926033 -s 8 -d 8 -p tcp -e 40 -c 2 -a 0 -i 1 -k AGT
+ -t 1.147926033 -s 8 -d -1 -p ack -e 40 -c 2 -a 0 -i 30 -k AGT 
- -t 1.147926033 -s 8 -d -1 -p ack -e 40 -c 2 -a 0 -i 30 -k AGT
h -t 1.147926033 -s 8 -d -1 -p ack -e 40 -c 2 -a 0 -i 30 -k AGT
+ -t 1.147926033 -s 8 -d 1 -p ack -e 40 -c 2 -a 0 -i 30 -k RTR 
- -t 1.147926033 -s 8 -d 1 -p ack -e 40 -c 2 -a 0 -i 30 -k RTR
h -t 1.147926033 -s 8 -d 1 -p ack -e 40 -c 2 -a 0 -i 30 -k RTR
r -t 1.149750739 -s 1 -d 1 -p ack -e 40 -c 2 -a 0 -i 30 -k AGT
+ -t 1.149750739 -s 1 -d -1 -p tcp -e 1540 -c 2 -a 0 -i 31 -k AGT 
- -t 1.149750739 -s 1 -d -1 -p tcp -e 1540 -c 2 -a 0 -i 31 -k AGT
h -t 1.149750739 -s 1 -d -1 -p tcp -e 1540 -c 2 -a 0 -i 31 -k AGT
+ -t 1.149750739 -s 1 -d -1 -p tcp -e 1540 -c 2 -a 0 -i 32 -k AGT 
- -t 1.149750739 -s 1 -d -1 -p tcp -e 1540 -c 2 -a 0 -i 32 -k AGT
h -t 1.149750739 -s 1 -d -1 -p tcp -e 1540 -c 2 -a 0 -i 32 -k AGT
+ -t 1.149750739 -s 1 -d 8 -p tcp -e 1540 -c 2 -a 0 -i 31 -k RTR 
- -t 1.149750739 -s 1 -d 8 -p tcp -e 1540 -c 2 -a 0 -i 31 -k RTR
h -t 1.149750739 -s 1 -d 8 -p tcp -e 1540 -c 2 -a 0 -i 31 -k RTR
+ -t 1.149750739 -s 1 -d 8 -p tcp -e 1540 -c 2 -a 0 -i 32 -k RTR 
- -t 1.149750739 -s 1 -d 8 -p tcp -e 1540 -c 2 -a 0 -i 32 -k RTR
h -t 1.149750739 -s 1 -d 8 -p tcp -e 1540 -c 2 -a 0 -i 32 -k RTR
+ -t 1.150148811 -s 2 -d -1 -p AODV -e 48 -c 2 -a 0 -i 0 -k RTR 
- -t 1.150148811 -s 2 -d -1 -p AODV -e 48 -c 2 -a 0 -i 0 -k RTR
h -t 1.150148811 -s 2 -d -1 -p AODV -e 48 -c 2 -a 0 -i 0 -k RTR
r -t 1.163815446 -s 8 -d 8 -p tcp -e 1540 -c 2 -a 0 -i 31 -k AGT
+ -t 1.163815446 -s 8 -d -1 -p ack -e 40 -c 2 -a 0 -i 33 -k AGT 
- -t 1.163815446 -s 8 -d -1 -p ack -e 40 -c 2 -a 0 -i 33 -k AGT
h -t 1.163815446 -s 8 -d -1 -p ack -e 40 -c 2 -a 0 -i 33 -k AGT
+ -t 1.163815446 -s 8 -d 1 -p ack -e 40 -c 2 -a 0 -i 33 -k RTR 
- -t 1.163815446 -s 8 -d 1 -p ack -e 40 -c 2 -a 0 -i 33 -k RTR
h -t 1.163815446 -s 8 -d 1 -p ack -e 40 -c 2 -a 0 -i 33 -k RTR
r -t 1.177660387 -s 8 -d 8 -p tcp -e 1540 -c 2 -a 0 -i 32 -k AGT
+ -t 1.177660387 -s 8 -d -1 -p ack -e 40 -c 2 -a 0 -i 34 -k AGT 
- -t 1.177660387 -s 8 -d -1 -p ack -e 40 -c 2 -a 0 -i 34 -k AGT
h -t 1.177660387 -s 8 -d -1 -p ack -e 40 -c 2 -a 0 -i 34 -k AGT
+ -t 1.177660387 -s 8 -d 1 -p ack -e 40 -c 2 -a 0 -i 34 -k RTR 
- -t 1.177660387 -s 8 -d 1 -p ack -e 40 -c 2 -a 0 -i 34 -k RTR
h -t 1.177660387 -s 8 -d 1 -p ack -e 40 -c 2 -a 0 -i 34 -k RTR
r -t 1.179525094 -s 1 -d 1 -p ack -e 40 -c 2 -a 0 -i 33 -k AGT
+ -t 1.179525094 -s 1 -d -1 -p tcp -e 1540 -c 2 -a 0 -i 35 -k AGT 
- -t 1.179525094 -s 1 -d -1 -p tcp -e 1540 -c 2 -a 0 -i 35 -k AGT
h -t 1.179525094 -s 1 -d -1 -p tcp -e 1540 -c 2 -a 0 -i 35 -k AGT
+ -t 1.179525094 -s 1 -d -1 -p tcp -e 1540 -c 2 -a 0 -i 36 -k AGT 
- -t 1.179525094 -s 1 -d -1 -p tcp -e 1540 -c 2 -a 0 -i 36 -k AGT
h -t 1.179525094 -s 1 -d -1 -p tcp -e 1540 -c 2 -a 0 -i 36 -k AGT
+ -t 1.179525094 -s 1 -d 8 -p tcp -e 1540 -c 2 -a 0 -i 35 -k RTR 
- -t 1.179525094 -s 1 -d 8 -p tcp -e 1540 -c 2 -a 0 -i 35 -k RTR
h -t 1.179525094 -s 1 -d 8 -p tcp -e 1540 -c 2 -a 0 -i 35 -k RTR
+ -t 1.179525094 -s 1 -d 8 -p tcp -e 1540 -c 2 -a 0 -i 36 -k RTR 
- -t 1.179525094 -s 1 -d 8 -p tcp -e 1540 -c 2 -a 0 -i 36 -k RTR
h -t 1.179525094 -s 1 -d 8 -p tcp -e 1540 -c 2 -a 0 -i 36 -k RTR
r -t 1.180878541 -s 8 -d -1 -p AODV -e 48 -c 2 -a 0 -i 0 -k RTR
r -t 1.180878726 -s 6 -d -1 -p AODV -e 48 -c 2 -a 0 -i 0 -k RTR
r -t 1.194114977 -s 9 -d 9 -p tcp -e 1540 -c 2 -a 0 -i 18 -k AGT
+ -t 1.194114977 -s 9 -d -1 -p ack -e 40 -c 2 -a 0 -i 37 -k AGT 
- -t 1.194114977 -s 9 -d -1 -p ack -e 40 -c 2 -a 0 -i 37 -k AGT
h -t 1.194114977 -s 9 -d -1 -p ack -e 40 -c 2 -a 0 -i 37 -k AGT
+ -t 1.194114977 -s 9 -d 0 -p ack -e 40 -c 2 -a 0 -i 37 -k RTR 
- -t 1.194114977 -s 9 -d 0 -p ack -e 40 -c 2 -a 0 -i 37 -k RTR
h -t 1.194114977 -s 9 -d 0 -p ack -e 40 -c 2 -a 0 -i 37 -k RTR
r -t 1.195419399 -s 2 -d -1 -p AODV -e 48 -c 2 -a 0 -i 0 -k RTR
r -t 1.197394145 -s 1 -d 1 -p ack -e 40 -c 2 -a 0 -i 34 -k AGT
+ -t 1.197394145 -s 1 -d -1 -p tcp -e 1540 -c 2 -a 0 -i 38 -k AGT 
- -t 1.197394145 -s 1 -d -1 -p tcp -e 1540 -c 2 -a 0 -i 38 -k AGT
h -t 1.197394145 -s 1 -d -1 -p tcp -e 1540 -c 2 -a 0 -i 38 -k AGT
+ -t 1.197394145 -s 1 -d -1 -p tcp -e 1540 -c 2 -a 0 -i 39 -k AGT 
- -t 1.197394145 -s 1 -d -1 -p tcp -e 1540 -c 2 -a 0 -i 39 -k AGT
h -t 1.197394145 -s 1 -d -1 -p tcp -e 1540 -c 2 -a 0 -i 39 -k AGT
+ -t 1.197394145 -s 1 -d 8 -p tcp -e 1540 -c 2 -a 0 -i 38 -k RTR 
- -t 1.197394145 -s 1 -d 8 -p tcp -e 1540 -c 2 -a 0 -i 38 -k RTR
h -t 1.197394145 -s 1 -d 8 -p tcp -e 1540 -c 2 -a 0 -i 38 -k RTR
+ -t 1.197394145 -s 1 -d 8 -p tcp -e 1540 -c 2 -a 0 -i 39 -k RTR 
- -t 1.197394145 -s 1 -d 8 -p tcp -e 1540 -c 2 -a 0 -i 39 -k RTR
h -t 1.197394145 -s 1 -d 8 -p tcp -e 1540 -c 2 -a 0 -i 39 -k RTR
r -t 1.211418851 -s 8 -d 8 -p tcp -e 1540 -c 2 -a 0 -i 35 -k AGT
+ -t 1.211418851 -s 8 -d -1 -p ack -e 40 -c 2 -a 0 -i 40 -k AGT 
- -t 1.211418851 -s 8 -d -1 -p ack -e 40 -c 2 -a 0 -i 40 -k AGT
h -t 1.211418851 -s 8 -d -1 -p ack -e 40 -c 2 -a 0 -i 40 -k AGT
+ -t 1.211418851 -s 8 -d 1 -p ack -e 40 -c 2 -a 0 -i 40 -k RTR 
- -t 1.211418851 -s 8 -d 1 -p ack -e 40 -c 2 -a 0 -i 40 -k RTR
h -t 1.211418851 -s 8 -d 1 -p ack -e 40 -c 2 -a 0 -i 40 -k RTR
r -t 1.225343794 -s 8 -d 8 -p tcp -e 1540 -c 2 -a 0 -i 36 -k AGT
+ -t 1.225343794 -s 8 -d -1 -p ack -e 40 -c 2 -a 0 -i 41 -k AGT 
- -t 1.225343794 -s 8 -d -1 -p ack -e 40 -c 2 -a 0 -i 41 -k AGT
h -t 1.225343794 -s 8 -d -1 -p ack -e 40 -c 2 -a 0 -i 41 -k AGT
+ -t 1.225343794 -s 8 -d 1 -p ack -e 40 -c 2 -a 0 -i 41 -k RTR 
- -t 1.225343794 -s 8 -d 1 -p ack -e 40 -c 2 -a 0 -i 41 -k RTR
h -t 1.225343794 -s 8 -d 1 -p ack -e 40 -c 2 -a 0 -i 41 -k RTR
r -t 1.239248736 -s 8 -d 8 -p tcp -e 1540 -c 2 -a 0 -i 38 -k AGT
+ -t 1.239248736 -s 8 -d -1 -p ack -e 40 -c 2 -a 0 -i 42 -k AGT 
- -t 1.239248736 -s 8 -d -1 -p ack -e 40 -c 2 -a 0 -i 42 -k AGT
h -t 1.239248736 -s 8 -d -1 -p ack -e 40 -c 2 -a 0 -i 42 -k AGT
+ -t 1.239248736 -s 8 -d 1 -p ack -e 40 -c 2 -a 0 -i 42 -k RTR 
- -t 1.239248736 -s 8 -d 1 -p ack -e 40 -c 2 -a 0 -i 42 -k RTR
h -t 1.239248736 -s 8 -d 1 -p ack -e 40 -c 2 -a 0 -i 42 -k RTR
r -t 1.241093443 -s 1 -d 1 -p ack -e 40 -c 2 -a 0 -i 40 -k AGT
+ -t 1.241093443 -s 1 -d -1 -p tcp -e 1540 -c 2 -a 0 -i 43 -k AGT 
- -t 1.241093443 -s 1 -d -1 -p tcp -e 1540 -c 2 -a 0 -i 43 -k AGT
h -t 1.241093443 -s 1 -d -1 -p tcp -e 1540 -c 2 -a 0 -i 43 -k AGT
+ -t 1.241093443 -s 1 -d -1 -p tcp -e 1540 -c 2 -a 0 -i 44 -k AGT 
- -t 1.241093443 -s 1 -d -1 -p tcp -e 1540 -c 2 -a 0 -i 44 -k AGT
h -t 1.241093443 -s 1 -d -1 -p tcp -e 1540 -c 2 -a 0 -i 44 -k AGT
+ -t 1.241093443 -s 1 -d 8 -p tcp -e 1540 -c 2 -a 0 -i 43 -k RTR 
- -t 1.241093443 -s 1 -d 8 -p tcp -e 1540 -c 2 -a 0 -i 43 -k RTR
h -t 1.241093443 -s 1 -d 8 -p tcp -e 1540 -c 2 -a 0 -i 43 -k RTR
+ -t 1.241093443 -s 1 -d 8 -p tcp -e 1540 -c 2 -a 0 -i 44 -k RTR 
- -t 1.241093443 -s 1 -d 8 -p tcp -e 1540 -c 2 -a 0 -i 44 -k RTR
h -t 1.241093443 -s 1 -d 8 -p tcp -e 1540 -c 2 -a 0 -i 44 -k RTR
r -t 1.243118386 -s 1 -d 1 -p ack -e 40 -c 2 -a 0 -i 41 -k AGT
+ -t 1.243118386 -s 1 -d -1 -p tcp -e 1540 -c 2 -a 0 -i 45 -k AGT 
- -t 1.243118386 -s 1 -d -1 -p tcp -e 1540 -c 2 -a 0 -i 45 -k AGT
h -t 1.243118386 -s 1 -d -1 -p tcp -e 1540 -c 2 -a 0 -i 45 -k AGT
+ -t 1.243118386 -s 1 -d -1 -p tcp -e 1540 -c 2 -a 0 -i 46 -k AGT 
- -t 1.243118386 -s 1 -d -1 -p tcp -e 1540 -c 2 -a 0 -i 46 -k AGT
h -t 1.243118386 -s 1 -d -1 -p tcp -e 1540 -c 2 -a 0 -i 46 -k AGT
+ -t 1.243118386 -s 1 -d 8 -p tcp -e 1540 -c 2 -a 0 -i 45 -k RTR 
- -t 1.243118386 -s 1 -d 8 -p tcp -e 1540 -c 2 -a 0 -i 45 -k RTR
h -t 1.243118386 -s 1 -d 8 -p tcp -e 1540 -c 2 -a 0 -i 45 -k RTR
+ -t 1.243118386 -s 1 -d 8 -p tcp -e 1540 -c 2 -a 0 -i 46 -k RTR 
- -t 1.243118386 -s 1 -d 8 -p tcp -e 1540 -c 2 -a 0 -i 46 -k RTR
h -t 1.243118386 -s 1 -d 8 -p tcp -e 1540 -c 2 -a 0 -i 46 -k RTR
r -t 1.256983093 -s 8 -d 8 -p tcp -e 1540 -c 2 -a 0 -i 39 -k AGT
+ -t 1.256983093 -s 8 -d -1 -p ack -e 40 -c 2 -a 0 -i 47 -k AGT 
- -t 1.256983093 -s 8 -d -1 -p ack -e 40 -c 2 -a 0 -i 47 -k AGT
h -t 1.256983093 -s 8 -d -1 -p ack -e 40 -c 2 -a 0 -i 47 -k AGT
+ -t 1.256983093 -s 8 -d 1 -p ack -e 40 -c 2 -a 0 -i 47 -k RTR 
- -t 1.256983093 -s 8 -d 1 -p ack -e 40 -c 2 -a 0 -i 47 -k RTR
h -t 1.256983093 -s 8 -d 1 -p ack -e 40 -c 2 -a 0 -i 47 -k RTR
r -t 1.258827801 -s 1 -d 1 -p ack -e 40 -c 2 -a 0 -i 42 -k AGT
+ -t 1.258827801 -s 1 -d -1 -p tcp -e 1540 -c 2 -a 0 -i 48 -k AGT 
- -t 1.258827801 -s 1 -d -1 -p tcp -e 1540 -c 2 -a 0 -i 48 -k AGT
h -t 1.258827801 -s 1 -d -1 -p tcp -e 1540 -c 2 -a 0 -i 48 -k AGT
+ -t 1.258827801 -s 1 -d -1 -p tcp -e 1540 -c 2 -a 0 -i 49 -k AGT 
- -t 1.258827801 -s 1 -d -1 -p tcp -e 1540 -c 2 -a 0 -i 49 -k AGT
h -t 1.258827801 -s 1 -d -1 -p tcp -e 1540 -c 2 -a 0 -i 49 -k AGT
+ -t 1.258827801 -s 1 -d 8 -p tcp -e 1540 -c 2 -a 0 -i 48 -k RTR 
- -t 1.258827801 -s 1 -d 8 -p tcp -e 1540 -c 2 -a 0 -i 48 -k RTR
h -t 1.258827801 -s 1 -d 8 -p tcp -e 1540 -c 2 -a 0 -i 48 -k RTR
+ -t 1.258827801 -s 1 -d 8 -p tcp -e 1540 -c 2 -a 0 -i 49 -k RTR 
- -t 1.258827801 -s 1 -d 8 -p tcp -e 1540 -c 2 -a 0 -i 49 -k RTR
h -t 1.258827801 -s 1 -d 8 -p tcp -e 1540 -c 2 -a 0 -i 49 -k RTR
r -t 1.272972508 -s 8 -d 8 -p tcp -e 1540 -c 2 -a 0 -i 43 -k AGT
+ -t 1.272972508 -s 8 -d -1 -p ack -e 40 -c 2 -a 0 -i 50 -k AGT 
- -t 1.272972508 -s 8 -d -1 -p ack -e 40 -c 2 -a 0 -i 50 -k AGT
h -t 1.272972508 -s 8 -d -1 -p ack -e 40 -c 2 -a 0 -i 50 -k AGT
+ -t 1.272972508 -s 8 -d 1 -p ack -e 40 -c 2 -a 0 -i 50 -k RTR 
- -t 1.272972508 -s 8 -d 1 -p ack -e 40 -c 2 -a 0 -i 50 -k RTR
h -t 1.272972508 -s 8 -d 1 -p ack -e 40 -c 2 -a 0 -i 50 -k RTR
r -t 1.286917451 -s 8 -d 8 -p tcp -e 1540 -c 2 -a 0 -i 44 -k AGT
+ -t 1.286917451 -s 8 -d -1 -p ack -e 40 -c 2 -a 0 -i 51 -k AGT 
- -t 1.286917451 -s 8 -d -1 -p ack -e 40 -c 2 -a 0 -i 51 -k AGT
h -t 1.286917451 -s 8 -d -1 -p ack -e 40 -c 2 -a 0 -i 51 -k AGT
+ -t 1.286917451 -s 8 -d 1 -p ack -e 40 -c 2 -a 0 -i 51 -k RTR 
- -t 1.286917451 -s 8 -d 1 -p ack -e 40 -c 2 -a 0 -i 51 -k RTR
h -t 1.286917451 -s 8 -d 1 -p ack -e 40 -c 2 -a 0 -i 51 -k RTR
r -t 1.300802395 -s 8 -d 8 -p tcp -e 1540 -c 2 -a 0 -i 45 -k AGT
+ -t 1.300802395 -s 8 -d -1 -p ack -e 40 -c 2 -a 0 -i 52 -k AGT 
- -t 1.300802395 -s 8 -d -1 -p ack -e 40 -c 2 -a 0 -i 52 -k AGT
h -t 1.300802395 -s 8 -d -1 -p ack -e 40 -c 2 -a 0 -i 52 -k AGT
+ -t 1.300802395 -s 8 -d 1 -p ack -e 40 -c 2 -a 0 -i 52 -k RTR 
- -t 1.300802395 -s 8 -d 1 -p ack -e 40 -c 2 -a 0 -i 52 -k RTR
h -t 1.300802395 -s 8 -d 1 -p ack -e 40 -c 2 -a 0 -i 52 -k RTR
r -t 1.302727102 -s 1 -d 1 -p ack -e 40 -c 2 -a 0 -i 47 -k AGT
+ -t 1.302727102 -s 1 -d -1 -p tcp -e 1540 -c 2 -a 0 -i 53 -k AGT 
- -t 1.302727102 -s 1 -d -1 -p tcp -e 1540 -c 2 -a 0 -i 53 -k AGT
h -t 1.302727102 -s 1 -d -1 -p tcp -e 1540 -c 2 -a 0 -i 53 -k AGT
+ -t 1.302727102 -s 1 -d -1 -p tcp -e 1540 -c 2 -a 0 -i 54 -k AGT 
- -t 1.302727102 -s 1 -d -1 -p tcp -e 1540 -c 2 -a 0 -i 54 -k AGT
h -t 1.302727102 -s 1 -d -1 -p tcp -e 1540 -c 2 -a 0 -i 54 -k AGT
+ -t 1.302727102 -s 1 -d 8 -p tcp -e 1540 -c 2 -a 0 -i 53 -k RTR 
- -t 1.302727102 -s 1 -d 8 -p tcp -e 1540 -c 2 -a 0 -i 53 -k RTR
h -t 1.302727102 -s 1 -d 8 -p tcp -e 1540 -c 2 -a 0 -i 53 -k RTR
+ -t 1.302727102 -s 1 -d 8 -p tcp -e 1540 -c 2 -a 0 -i 54 -k RTR 
- -t 1.302727102 -s 1 -d 8 -p tcp -e 1540 -c 2 -a 0 -i 54 -k RTR
h -t 1.302727102 -s 1 -d 8 -p tcp -e 1540 -c 2 -a 0 -i 54 -k RTR
r -t 1.304672046 -s 1 -d 1 -p ack -e 40 -c 2 -a 0 -i 50 -k AGT
+ -t 1.304672046 -s 1 -d -1 -p tcp -e 1540 -c 2 -a 0 -i 55 -k AGT 
- -t 1.304672046 -s 1 -d -1 -p tcp -e 1540 -c 2 -a 0 -i 55 -k AGT
h -t 1.304672046 -s 1 -d -1 -p tcp -e 1540 -c 2 -a 0 -i 55 -k AGT
+ -t 1.304672046 -s 1 -d -1 -p tcp -e 1540 -c 2 -a 0 -i 56 -k AGT 
- -t 1.304672046 -s 1 -d -1 -p tcp -e 1540 -c 2 -a 0 -i 56 -k AGT
h -t 1.304672046 -s 1 -d -1 -p tcp -e 1540 -c 2 -a 0 -i 56 -k AGT
+ -t 1.304672046 -s 1 -d 8 -p tcp -e 1540 -c 2 -a 0 -i 55 -k RTR 
- -t 1.304672046 -s 1 -d 8 -p tcp -e 1540 -c 2 -a 0 -i 55 -k RTR
h -t 1.304672046 -s 1 -d 8 -p tcp -e 1540 -c 2 -a 0 -i 55 -k RTR
+ -t 1.304672046 -s 1 -d 8 -p tcp -e 1540 -c 2 -a 0 -i 56 -k RTR 
- -t 1.304672046 -s 1 -d 8 -p tcp -e 1540 -c 2 -a 0 -i 56 -k RTR
h -t 1.304672046 -s 1 -d 8 -p tcp -e 1540 -c 2 -a 0 -i 56 -k RTR
r -t 1.318856754 -s 8 -d 8 -p tcp -e 1540 -c 2 -a 0 -i 46 -k AGT
+ -t 1.318856754 -s 8 -d -1 -p ack -e 40 -c 2 -a 0 -i 57 -k AGT 
- -t 1.318856754 -s 8 -d -1 -p ack -e 40 -c 2 -a 0 -i 57 -k AGT
h -t 1.318856754 -s 8 -d -1 -p ack -e 40 -c 2 -a 0 -i 57 -k AGT
+ -t 1.318856754 -s 8 -d 1 -p ack -e 40 -c 2 -a 0 -i 57 -k RTR 
- -t 1.318856754 -s 8 -d 1 -p ack -e 40 -c 2 -a 0 -i 57 -k RTR
h -t 1.318856754 -s 8 -d 1 -p ack -e 40 -c 2 -a 0 -i 57 -k RTR
r -t 1.320921462 -s 1 -d 1 -p ack -e 40 -c 2 -a 0 -i 51 -k AGT
+ -t 1.320921462 -s 1 -d -1 -p tcp -e 1540 -c 2 -a 0 -i 58 -k AGT 
- -t 1.320921462 -s 1 -d -1 -p tcp -e 1540 -c 2 -a 0 -i 58 -k AGT