r 26.201217359 _0_ AGT  --- 497 ack 40 [13a 0 e 800] ------- [4:0 0:0 28 0] [225 0] 3 0
s 26.201217359 _0_ AGT  --- 498 tcp 1540 [0 0 0 0] ------- [0:0 4:0 32 0] [226 0] 0 0
r 26.201217359 _0_ RTR  --- 498 tcp 1540 [0 0 0 0] ------- [0:0 4:0 32 0] [226 0] 0 0
s 26.201217359 _0_ AGT  --- 499 tcp 1540 [0 0 0 0] ------- [0:0 4:0 32 0] [227 0] 0 0
r 26.201217359 _0_ RTR  --- 499 tcp 1540 [0 0 0 0] ------- [0:0 4:0 32 0] [227 0] 0 0
s 26.201217359 _0_ RTR  --- 498 tcp 1540 [0 0 0 0] ------- [0:0 4:0 30 14] [226 0] 0 0
s 26.201217359 _0_ RTR  --- 499 tcp 1540 [0 0 0 0] ------- [0:0 4:0 30 14] [227 0] 0 0
r 26.215303421 _14_ RTR  --- 498 tcp 1540 [13a e 0 800] ------- [0:0 4:0 30 14] [226 0] 1 0
f 26.215303421 _14_ RTR  --- 498 tcp 1540 [13a e 0 800] ------- [0:0 4:0 29 6] [226 0] 1 0
r 26.229209205 _6_ RTR  --- 498 tcp 1540 [13a 6 e 800] ------- [0:0 4:0 29 6] [226 0] 2 0
f 26.229209205 _6_ RTR  --- 498 tcp 1540 [13a 6 e 800] ------- [0:0 4:0 28 4] [226 0] 2 0
r 26.243275228 _4_ AGT  --- 498 tcp 1540 [13a 4 6 800] ------- [0:0 4:0 28 4] [226 0] 3 0
s 26.243275228 _4_ AGT  --- 500 ack 40 [0 0 0 0] ------- [4:0 0:0 32 0] [226 0] 0 0
r 26.243275228 _4_ RTR  --- 500 ack 40 [0 0 0 0] ------- [4:0 0:0 32 0] [226 0] 0 0
s 26.243275228 _4_ RTR  --- 500 ack 40 [0 0 0 0] ------- [4:0 0:0 30 6] [226 0] 0 0
r 26.245401250 _6_ RTR  --- 500 ack 40 [13a 6 4 800] ------- [4:0 0:0 30 6] [226 0] 1 0
f 26.245401250 _6_ RTR  --- 500 ack 40 [13a 6 4 800] ------- [4:0 0:0 29 14] [226 0] 1 0
r 26.247487038 _14_ RTR  --- 500 ack 40 [13a e 6 800] ------- [4:0 0:0 29 14] [226 0] 2 0
f 26.247487038 _14_ RTR  --- 500 ack 40 [13a e 6 800] ------- [4:0 0:0 28 0] [226 0] 2 0
r 26.249453102 _0_ AGT  --- 500 ack 40 [13a 0 e 800] ------- [4:0 0:0 28 0] [226 0] 3 0
s 26.249453102 _0_ AGT  --- 501 tcp 1540 [0 0 0 0] ------- [0:0 4:0 32 0] [228 0] 0 0
r 26.249453102 _0_ RTR  --- 501 tcp 1540 [0 0 0 0] ------- [0:0 4:0 32 0] [228 0] 0 0
s 26.249453102 _0_ AGT  --- 502 tcp 1540 [0 0 0 0] ------- [0:0 4:0 32 0] [229 0] 0 0
r 26.249453102 _0_ RTR  --- 502 tcp 1540 [0 0 0 0] ------- [0:0 4:0 32 0] [229 0] 0 0
s 26.249453102 _0_ RTR  --- 501 tcp 1540 [0 0 0 0] ------- [0:0 4:0 30 14] [228 0] 0 0
s 26.249453102 _0_ RTR  --- 502 tcp 1540 [0 0 0 0] ------- [0:0 4:0 30 14] [229 0] 0 0
r 26.263639166 _14_ RTR  --- 499 tcp 1540 [13a e 0 800] ------- [0:0 4:0 30 14] [227 0] 1 0
f 26.263639166 _14_ RTR  --- 499 tcp 1540 [13a e 0 800] ------- [0:0 4:0 29 6] [227 0] 1 0
r 26.277604956 _6_ RTR  --- 499 tcp 1540 [13a 6 e 800] ------- [0:0 4:0 29 6] [227 0] 2 0
f 26.277604956 _6_ RTR  --- 499 tcp 1540 [13a 6 e 800] ------- [0:0 4:0 28 4] [227 0] 2 0
r 26.291690974 _4_ AGT  --- 499 tcp 1540 [13a 4 6 800] ------- [0:0 4:0 28 4] [227 0] 3 0
s 26.291690974 _4_ AGT  --- 503 ack 40 [0 0 0 0] ------- [4:0 0:0 32 0] [227 0] 0 0
r 26.291690974 _4_ RTR  --- 503 ack 40 [0 0 0 0] ------- [4:0 0:0 32 0] [227 0] 0 0
s 26.291690974 _4_ RTR  --- 503 ack 40 [0 0 0 0] ------- [4:0 0:0 30 6] [227 0] 0 0
r 26.305942449 _14_ RTR  --- 501 tcp 1540 [13a e 0 800] ------- [0:0 4:0 30 14] [228 0] 1 0
f 26.305942449 _14_ RTR  --- 501 tcp 1540 [13a e 0 800] ------- [0:0 4:0 29 6] [228 0] 1 0
r 26.319908246 _6_ RTR  --- 501 tcp 1540 [13a 6 e 800] ------- [0:0 4:0 29 6] [228 0] 2 0
f 26.319908246 _6_ RTR  --- 501 tcp 1540 [13a 6 e 800] ------- [0:0 4:0 28 4] [228 0] 2 0
r 26.321924926 _6_ RTR  --- 503 ack 40 [13a 6 4 800] ------- [4:0 0:0 30 6] [227 0] 1 0
f 26.321924926 _6_ RTR  --- 503 ack 40 [13a 6 4 800] ------- [4:0 0:0 29 14] [227 0] 1 0
r 26.335990938 _4_ AGT  --- 501 tcp 1540 [13a 4 6 800] ------- [0:0 4:0 28 4] [228 0] 3 0
s 26.335990938 _4_ AGT  --- 504 ack 40 [0 0 0 0] ------- [4:0 0:0 32 0] [228 0] 0 0
r 26.335990938 _4_ RTR  --- 504 ack 40 [0 0 0 0] ------- [4:0 0:0 32 0] [228 0] 0 0
s 26.335990938 _4_ RTR  --- 504 ack 40 [0 0 0 0] ------- [4:0 0:0 30 6] [228 0] 0 0
r 26.338076948 _6_ RTR  --- 504 ack 40 [13a 6 4 800] ------- [4:0 0:0 30 6] [228 0] 1 0
f 26.338076948 _6_ RTR  --- 504 ack 40 [13a 6 4 800] ------- [4:0 0:0 29 14] [228 0] 1 0
r 26.340182749 _14_ RTR  --- 503 ack 40 [13a e 6 800] ------- [4:0 0:0 29 14] [227 0] 2 0
f 26.340182749 _14_ RTR  --- 503 ack 40 [13a e 6 800] ------- [4:0 0:0 28 0] [227 0] 2 0
r 26.342049151 _14_ RTR  --- 504 ack 40 [13a e 6 800] ------- [4:0 0:0 29 14] [228 0] 2 0
f 26.342049151 _14_ RTR  --- 504 ack 40 [13a e 6 800] ------- [4:0 0:0 28 0] [228 0] 2 0
r 26.356125541 _14_ RTR  --- 502 tcp 1540 [13a e 0 800] ------- [0:0 4:0 30 14] [229 0] 1 0
f 26.356125541 _14_ RTR  --- 502 tcp 1540 [13a e 0 800] ------- [0:0 4:0 29 6] [229 0] 1 0
r 26.358131610 _0_ AGT  --- 503 ack 40 [13a 0 e 800] ------- [4:0 0:0 28 0] [227 0] 3 0
s 26.358131610 _0_ AGT  --- 505 tcp 1540 [0 0 0 0] ------- [0:0 4:0 32 0] [230 0] 0 0
r 26.358131610 _0_ RTR  --- 505 tcp 1540 [0 0 0 0] ------- [0:0 4:0 32 0] [230 0] 0 0
s 26.358131610 _0_ AGT  --- 506 tcp 1540 [0 0 0 0] ------- [0:0 4:0 32 0] [231 0] 0 0
r 26.358131610 _0_ RTR  --- 506 tcp 1540 [0 0 0 0] ------- [0:0 4:0 32 0] [231 0] 0 0
s 26.358131610 _0_ RTR  --- 505 tcp 1540 [0 0 0 0] ------- [0:0 4:0 30 14] [230 0] 0 0
s 26.358131610 _0_ RTR  --- 506 tcp 1540 [0 0 0 0] ------- [0:0 4:0 30 14] [231 0] 0 0
r 26.372037678 _14_ RTR  --- 505 tcp 1540 [13a e 0 800] ------- [0:0 4:0 30 14] [230 0] 1 0
f 26.372037678 _14_ RTR  --- 505 tcp 1540 [13a e 0 800] ------- [0:0 4:0 29 6] [230 0] 1 0
r 26.374163748 _0_ AGT  --- 504 ack 40 [13a 0 e 800] ------- [4:0 0:0 28 0] [228 0] 3 0
s 26.374163748 _0_ AGT  --- 507 tcp 1540 [0 0 0 0] ------- [0:0 4:0 32 0] [232 0] 0 0
r 26.374163748 _0_ RTR  --- 507 tcp 1540 [0 0 0 0] ------- [0:0 4:0 32 0] [232 0] 0 0
s 26.374163748 _0_ AGT  --- 508 tcp 1540 [0 0 0 0] ------- [0:0 4:0 32 0] [233 0] 0 0
r 26.374163748 _0_ RTR  --- 508 tcp 1540 [0 0 0 0] ------- [0:0 4:0 32 0] [233 0] 0 0
s 26.374163748 _0_ RTR  --- 507 tcp 1540 [0 0 0 0] ------- [0:0 4:0 30 14] [232 0] 0 0
s 26.374163748 _0_ RTR  --- 508 tcp 1540 [0 0 0 0] ------- [0:0 4:0 30 14] [233 0] 0 0
r 26.388010243 _6_ RTR  --- 502 tcp 1540 [13a 6 e 800] ------- [0:0 4:0 29 6] [229 0] 2 0
f 26.388010243 _6_ RTR  --- 502 tcp 1540 [13a 6 e 800] ------- [0:0 4:0 28 4] [229 0] 2 0
r 26.401996247 _4_ AGT  --- 502 tcp 1540 [13a 4 6 800] ------- [0:0 4:0 28 4] [229 0] 3 0
s 26.401996247 _4_ AGT  --- 509 ack 40 [0 0 0 0] ------- [4:0 0:0 32 0] [229 0] 0 0
r 26.401996247 _4_ RTR  --- 509 ack 40 [0 0 0 0] ------- [4:0 0:0 32 0] [229 0] 0 0
s 26.401996247 _4_ RTR  --- 509 ack 40 [0 0 0 0] ------- [4:0 0:0 30 6] [229 0] 0 0
r 26.403962248 _6_ RTR  --- 509 ack 40 [13a 6 4 800] ------- [4:0 0:0 30 6] [229 0] 1 0
f 26.403962248 _6_ RTR  --- 509 ack 40 [13a 6 4 800] ------- [4:0 0:0 29 14] [229 0] 1 0
r 26.405968059 _14_ RTR  --- 509 ack 40 [13a e 6 800] ------- [4:0 0:0 29 14] [229 0] 2 0
f 26.405968059 _14_ RTR  --- 509 ack 40 [13a e 6 800] ------- [4:0 0:0 28 0] [229 0] 2 0
r 26.419884448 _14_ RTR  --- 506 tcp 1540 [13a e 0 800] ------- [0:0 4:0 30 14] [231 0] 1 0
f 26.419884448 _14_ RTR  --- 506 tcp 1540 [13a e 0 800] ------- [0:0 4:0 29 6] [231 0] 1 0
r 26.433870260 _6_ RTR  --- 505 tcp 1540 [13a 6 e 800] ------- [0:0 4:0 29 6] [230 0] 2 0
f 26.433870260 _6_ RTR  --- 505 tcp 1540 [13a 6 e 800] ------- [0:0 4:0 28 4] [230 0] 2 0
r 26.447856258 _4_ AGT  --- 505 tcp 1540 [13a 4 6 800] ------- [0:0 4:0 28 4] [230 0] 3 0
s 26.447856258 _4_ AGT  --- 510 ack 40 [0 0 0 0] ------- [4:0 0:0 32 0] [230 0] 0 0
r 26.447856258 _4_ RTR  --- 510 ack 40 [0 0 0 0] ------- [4:0 0:0 32 0] [230 0] 0 0
s 26.447856258 _4_ RTR  --- 510 ack 40 [0 0 0 0] ------- [4:0 0:0 30 6] [230 0] 0 0
r 26.449742254 _6_ RTR  --- 510 ack 40 [13a 6 4 800] ------- [4:0 0:0 30 6] [230 0] 1 0
f 26.449742254 _6_ RTR  --- 510 ack 40 [13a 6 4 800] ------- [4:0 0:0 29 14] [230 0] 1 0
r 26.451778929 _0_ AGT  --- 509 ack 40 [13a 0 e 800] ------- [4:0 0:0 28 0] [229 0] 3 0
s 26.451778929 _0_ AGT  --- 511 tcp 1540 [0 0 0 0] ------- [0:0 4:0 32 0] [234 0] 0 0
r 26.451778929 _0_ RTR  --- 511 tcp 1540 [0 0 0 0] ------- [0:0 4:0 32 0] [234 0] 0 0
s 26.451778929 _0_ AGT  --- 512 tcp 1540 [0 0 0 0] ------- [0:0 4:0 32 0] [235 0] 0 0
r 26.451778929 _0_ RTR  --- 512 tcp 1540 [0 0 0 0] ------- [0:0 4:0 32 0] [235 0] 0 0
s 26.451778929 _0_ RTR  --- 511 tcp 1540 [0 0 0 0] ------- [0:0 4:0 30 14] [234 0] 0 0
s 26.451778929 _0_ RTR  --- 512 tcp 1540 [0 0 0 0] ------- [0:0 4:0 30 14] [235 0] 0 0
r 26.465825437 _6_ RTR  --- 506 tcp 1540 [13a 6 e 800] ------- [0:0 4:0 29 6] [231 0] 2 0
f 26.465825437 _6_ RTR  --- 506 tcp 1540 [13a 6 e 800] ------- [0:0 4:0 28 4] [231 0] 2 0
r 26.467791256 _14_ RTR  --- 510 ack 40 [13a e 6 800] ------- [4:0 0:0 29 14] [230 0] 2 0
f 26.467791256 _14_ RTR  --- 510 ack 40 [13a e 6 800] ------- [4:0 0:0 28 0] [230 0] 2 0
r 26.481787644 _14_ RTR  --- 507 tcp 1540 [13a e 0 800] ------- [0:0 4:0 30 14] [232 0] 1 0
f 26.481787644 _14_ RTR  --- 507 tcp 1540 [13a e 0 800] ------- [0:0 4:0 29 6] [232 0] 1 0
r 26.483673719 _0_ AGT  --- 510 ack 40 [13a 0 e 800] ------- [4:0 0:0 28 0] [230 0] 3 0
s 26.483673719 _0_ AGT  --- 513 tcp 1540 [0 0 0 0] ------- [0:0 4:0 32 0] [236 0] 0 0
r 26.483673719 _0_ RTR  --- 513 tcp 1540 [0 0 0 0] ------- [0:0 4:0 32 0] [236 0] 0 0
s 26.483673719 _0_ AGT  --- 514 tcp 1540 [0 0 0 0] ------- [0:0 4:0 32 0] [237 0] 0 0
r 26.483673719 _0_ RTR  --- 514 tcp 1540 [0 0 0 0] ------- [0:0 4:0 32 0] [237 0] 0 0
s 26.483673719 _0_ RTR  --- 513 tcp 1540 [0 0 0 0] ------- [0:0 4:0 30 14] [236 0] 0 0
s 26.483673719 _0_ RTR  --- 514 tcp 1540 [0 0 0 0] ------- [0:0 4:0 30 14] [237 0] 0 0
r 26.497904630 _4_ AGT  --- 506 tcp 1540 [13a 4 6 800] ------- [0:0 4:0 28 4] [231 0] 3 0
s 26.497904630 _4_ AGT  --- 515 ack 40 [0 0 0 0] ------- [4:0 0:0 32 0] [231 0] 0 0
r 26.497904630 _4_ RTR  --- 515 ack 40 [0 0 0 0] ------- [4:0 0:0 32 0] [231 0] 0 0
s 26.497904630 _4_ RTR  --- 515 ack 40 [0 0 0 0] ------- [4:0 0:0 30 6] [231 0] 0 0
r 26.499990619 _6_ RTR  --- 515 ack 40 [13a 6 4 800] ------- [4:0 0:0 30 6] [231 0] 1 0
f 26.499990619 _6_ RTR  --- 515 ack 40 [13a 6 4 800] ------- [4:0 0:0 29 14] [231 0] 1 0
r 26.513907048 _6_ RTR  --- 507 tcp 1540 [13a 6 e 800] ------- [0:0 4:0 29 6] [232 0] 2 0
f 26.513907048 _6_ RTR  --- 507 tcp 1540 [13a 6 e 800] ------- [0:0 4:0 28 4] [232 0] 2 0
r 26.515892874 _14_ RTR  --- 515 ack 40 [13a e 6 800] ------- [4:0 0:0 29 14] [231 0] 2 0
f 26.515892874 _14_ RTR  --- 515 ack 40 [13a e 6 800] ------- [4:0 0:0 28 0] [231 0] 2 0
r 26.529789261 _14_ RTR  --- 508 tcp 1540 [13a e 0 800] ------- [0:0 4:0 30 14] [233 0] 1 0
f 26.529789261 _14_ RTR  --- 508 tcp 1540 [13a e 0 800] ------- [0:0 4:0 29 6] [233 0] 1 0
r 26.531695338 _0_ AGT  --- 515 ack 40 [13a 0 e 800] ------- [4:0 0:0 28 0] [231 0] 3 0
s 26.531695338 _0_ AGT  --- 516 tcp 1540 [0 0 0 0] ------- [0:0 4:0 32 0] [238 0] 0 0
r 26.531695338 _0_ RTR  --- 516 tcp 1540 [0 0 0 0] ------- [0:0 4:0 32 0] [238 0] 0 0
s 26.531695338 _0_ AGT  --- 517 tcp 1540 [0 0 0 0] ------- [0:0 4:0 32 0] [239 0] 0 0
r 26.531695338 _0_ RTR  --- 517 tcp 1540 [0 0 0 0] ------- [0:0 4:0 32 0] [239 0] 0 0
s 26.531695338 _0_ RTR  --- 516 tcp 1540 [0 0 0 0] ------- [0:0 4:0 30 14] [238 0] 0 0
s 26.531695338 _0_ RTR  --- 517 tcp 1540 [0 0 0 0] ------- [0:0 4:0 30 14] [239 0] 0 0
r 26.546808799 _14_ RTR  --- 511 tcp 1540 [13a e 0 800] ------- [0:0 4:0 30 14] [234 0] 1 0
f 26.546808799 _14_ RTR  --- 511 tcp 1540 [13a e 0 800] ------- [0:0 4:0 29 6] [234 0] 1 0
r 26.560945009 _4_ AGT  --- 507 tcp 1540 [13a 4 6 800] ------- [0:0 4:0 28 4] [232 0] 3 0
s 26.560945009 _4_ AGT  --- 518 ack 40 [0 0 0 0] ------- [4:0 0:0 32 0] [232 0] 0 0
r 26.560945009 _4_ RTR  --- 518 ack 40 [0 0 0 0] ------- [4:0 0:0 32 0] [232 0] 0 0
s 26.560945009 _4_ RTR  --- 518 ack 40 [0 0 0 0] ------- [4:0 0:0 30 6] [232 0] 0 0
r 26.562850990 _6_ RTR  --- 518 ack 40 [13a 6 4 800] ------- [4:0 0:0 30 6] [232 0] 1 0
f 26.562850990 _6_ RTR  --- 518 ack 40 [13a 6 4 800] ------- [4:0 0:0 29 14] [232 0] 1 0
r 26.564696823 _14_ RTR  --- 518 ack 40 [13a e 6 800] ------- [4:0 0:0 29 14] [232 0] 2 0
f 26.564696823 _14_ RTR  --- 518 ack 40 [13a e 6 800] ------- [4:0 0:0 28 0] [232 0] 2 0
r 26.578793209 _14_ RTR  --- 512 tcp 1540 [13a e 0 800] ------- [0:0 4:0 30 14] [235 0] 1 0
f 26.578793209 _14_ RTR  --- 512 tcp 1540 [13a e 0 800] ------- [0:0 4:0 29 6] [235 0] 1 0
r 26.592919044 _6_ RTR  --- 508 tcp 1540 [13a 6 e 800] ------- [0:0 4:0 29 6] [233 0] 2 0
f 26.592919044 _6_ RTR  --- 508 tcp 1540 [13a 6 e 800] ------- [0:0 4:0 28 4] [233 0] 2 0
r 26.606805021 _4_ AGT  --- 508 tcp 1540 [13a 4 6 800] ------- [0:0 4:0 28 4] [233 0] 3 0
s 26.606805021 _4_ AGT  --- 519 ack 40 [0 0 0 0] ------- [4:0 0:0 32 0] [233 0] 0 0
r 26.606805021 _4_ RTR  --- 519 ack 40 [0 0 0 0] ------- [4:0 0:0 32 0] [233 0] 0 0
s 26.606805021 _4_ RTR  --- 519 ack 40 [0 0 0 0] ------- [4:0 0:0 30 6] [233 0] 0 0
r 26.609030996 _6_ RTR  --- 519 ack 40 [13a 6 4 800] ------- [4:0 0:0 30 6] [233 0] 1 0
f 26.609030996 _6_ RTR  --- 519 ack 40 [13a 6 4 800] ------- [4:0 0:0 29 14] [233 0] 1 0
r 26.611016836 _14_ RTR  --- 519 ack 40 [13a e 6 800] ------- [4:0 0:0 29 14] [233 0] 2 0
f 26.611016836 _14_ RTR  --- 519 ack 40 [13a e 6 800] ------- [4:0 0:0 28 0] [233 0] 2 0
r 26.625093221 _14_ RTR  --- 513 tcp 1540 [13a e 0 800] ------- [0:0 4:0 30 14] [236 0] 1 0
f 26.625093221 _14_ RTR  --- 513 tcp 1540 [13a e 0 800] ------- [0:0 4:0 29 6] [236 0] 1 0
r 26.638959062 _6_ RTR  --- 511 tcp 1540 [13a 6 e 800] ------- [0:0 4:0 29 6] [234 0] 2 0
f 26.638959062 _6_ RTR  --- 511 tcp 1540 [13a 6 e 800] ------- [0:0 4:0 28 4] [234 0] 2 0
r 26.652925034 _4_ AGT  --- 511 tcp 1540 [13a 4 6 800] ------- [0:0 4:0 28 4] [234 0] 3 0
s 26.652925034 _4_ AGT  --- 520 ack 40 [0 0 0 0] ------- [4:0 0:0 32 0] [234 0] 0 0
r 26.652925034 _4_ RTR  --- 520 ack 40 [0 0 0 0] ------- [4:0 0:0 32 0] [234 0] 0 0
s 26.652925034 _4_ RTR  --- 520 ack 40 [0 0 0 0] ------- [4:0 0:0 30 6] [234 0] 0 0
r 26.654791003 _6_ RTR  --- 520 ack 40 [13a 6 4 800] ------- [4:0 0:0 30 6] [234 0] 1 0
f 26.654791003 _6_ RTR  --- 520 ack 40 [13a 6 4 800] ------- [4:0 0:0 29 14] [234 0] 1 0
r 26.656776849 _14_ RTR  --- 520 ack 40 [13a e 6 800] ------- [4:0 0:0 29 14] [234 0] 2 0
f 26.656776849 _14_ RTR  --- 520 ack 40 [13a e 6 800] ------- [4:0 0:0 28 0] [234 0] 2 0
r 26.658842932 _0_ AGT  --- 518 ack 40 [13a 0 e 800] ------- [4:0 0:0 28 0] [232 0] 3 0
s 26.658842932 _0_ AGT  --- 521 tcp 1540 [0 0 0 0] ------- [0:0 4:0 32 0] [240 0] 0 0
r 26.658842932 _0_ RTR  --- 521 tcp 1540 [0 0 0 0] ------- [0:0 4:0 32 0] [240 0] 0 0
s 26.658842932 _0_ AGT  --- 522 tcp 1540 [0 0 0 0] ------- [0:0 4:0 32 0] [241 0] 0 0
r 26.658842932 _0_ RTR  --- 522 tcp 1540 [0 0 0 0] ------- [0:0 4:0 32 0] [241 0] 0 0
s 26.658842932 _0_ RTR  --- 521 tcp 1540 [0 0 0 0] ------- [0:0 4:0 30 14] [240 0] 0 0
s 26.658842932 _0_ RTR  --- 522 tcp 1540 [0 0 0 0] ------- [0:0 4:0 30 14] [241 0] 0 0
r 26.674596404 _14_ RTR  --- 514 tcp 1540 [13a e 0 800] ------- [0:0 4:0 30 14] [237 0] 1 0
f 26.674596404 _14_ RTR  --- 514 tcp 1540 [13a e 0 800] ------- [0:0 4:0 29 6] [237 0] 1 0
r 26.688602253 _6_ RTR  --- 512 tcp 1540 [13a 6 e 800] ------- [0:0 4:0 29 6] [235 0] 2 0
f 26.688602253 _6_ RTR  --- 512 tcp 1540 [13a 6 e 800] ------- [0:0 4:0 28 4] [235 0] 2 0
r 26.690428955 _0_ AGT  --- 519 ack 40 [13a 0 e 800] ------- [4:0 0:0 28 0] [233 0] 3 0
s 26.690428955 _0_ AGT  --- 523 tcp 1540 [0 0 0 0] ------- [0:0 4:0 32 0] [242 0] 0 0
r 26.690428955 _0_ RTR  --- 523 tcp 1540 [0 0 0 0] ------- [0:0 4:0 32 0] [242 0] 0 0
s 26.690428955 _0_ RTR  --- 523 tcp 1540 [0 0 0 0] ------- [0:0 4:0 30 14] [242 0] 0 0
r 26.704275039 _14_ RTR  --- 516 tcp 1540 [13a e 0 800] ------- [0:0 4:0 30 14] [238 0] 1 0
f 26.704275039 _14_ RTR  --- 516 tcp 1540 [13a e 0 800] ------- [0:0 4:0 29 6] [238 0] 1 0
r 26.718300892 _6_ RTR  --- 513 tcp 1540 [13a 6 e 800] ------- [0:0 4:0 29 6] [236 0] 2 0
f 26.718300892 _6_ RTR  --- 513 tcp 1540 [13a 6 e 800] ------- [0:0 4:0 28 4] [236 0] 2 0
r 26.720167597 _0_ AGT  --- 520 ack 40 [13a 0 e 800] ------- [4:0 0:0 28 0] [234 0] 3 0
s 26.720167597 _0_ AGT  --- 524 tcp 1540 [0 0 0 0] ------- [0:0 4:0 32 0] [243 0] 0 0
r 26.720167597 _0_ RTR  --- 524 tcp 1540 [0 0 0 0] ------- [0:0 4:0 32 0] [243 0] 0 0
s 26.720167597 _0_ RTR  --- 524 tcp 1540 [0 0 0 0] ------- [0:0 4:0 30 14] [243 0] 0 0
r 26.734294148 _6_ RTR  --- 514 tcp 1540 [13a 6 e 800] ------- [0:0 4:0 29 6] [237 0] 2 0
f 26.734294148 _6_ RTR  --- 514 tcp 1540 [13a 6 e 800] ------- [0:0 4:0 28 4] [237 0] 2 0
r 26.748360624 _6_ RTR  --- 516 tcp 1540 [13a 6 e 800] ------- [0:0 4:0 29 6] [238 0] 2 0
f 26.748360624 _6_ RTR  --- 516 tcp 1540 [13a 6 e 800] ------- [0:0 4:0 28 4] [238 0] 2 0
r 26.762286581 _4_ AGT  --- 512 tcp 1540 [13a 4 6 800] ------- [0:0 4:0 28 4] [235 0] 3 0
s 26.762286581 _4_ AGT  --- 525 ack 40 [0 0 0 0] ------- [4:0 0:0 32 0] [235 0] 0 0
r 26.762286581 _4_ RTR  --- 525 ack 40 [0 0 0 0] ------- [4:0 0:0 32 0] [235 0] 0 0
s 26.762286581 _4_ RTR  --- 525 ack 40 [0 0 0 0] ------- [4:0 0:0 30 6] [235 0] 0 0
r 26.764432537 _6_ RTR  --- 525 ack 40 [13a 6 4 800] ------- [4:0 0:0 30 6] [235 0] 1 0
f 26.764432537 _6_ RTR  --- 525 ack 40 [13a 6 4 800] ------- [4:0 0:0 29 14] [235 0] 1 0
r 26.778478492 _4_ AGT  --- 513 tcp 1540 [13a 4 6 800] ------- [0:0 4:0 28 4] [236 0] 3 0
s 26.778478492 _4_ AGT  --- 526 ack 40 [0 0 0 0] ------- [4:0 0:0 32 0] [236 0] 0 0
r 26.778478492 _4_ RTR  --- 526 ack 40 [0 0 0 0] ------- [4:0 0:0 32 0] [236 0] 0 0
s 26.778478492 _4_ RTR  --- 526 ack 40 [0 0 0 0] ------- [4:0 0:0 30 6] [236 0] 0 0
r 26.780344445 _6_ RTR  --- 526 ack 40 [13a 6 4 800] ------- [4:0 0:0 30 6] [236 0] 1 0
f 26.780344445 _6_ RTR  --- 526 ack 40 [13a 6 4 800] ------- [4:0 0:0 29 14] [236 0] 1 0
r 26.794390398 _4_ AGT  --- 514 tcp 1540 [13a 4 6 800] ------- [0:0 4:0 28 4] [237 0] 3 0
s 26.794390398 _4_ AGT  --- 527 ack 40 [0 0 0 0] ------- [4:0 0:0 32 0] [244 0] 0 0
r 26.794390398 _4_ RTR  --- 527 ack 40 [0 0 0 0] ------- [4:0 0:0 32 0] [244 0] 0 0
s 26.794390398 _4_ RTR  --- 527 ack 40 [0 0 0 0] ------- [4:0 0:0 30 6] [244 0] 0 0
r 26.796336349 _6_ RTR  --- 527 ack 40 [13a 6 4 800] ------- [4:0 0:0 30 6] [244 0] 1 0
f 26.796336349 _6_ RTR  --- 527 ack 40 [13a 6 4 800] ------- [4:0 0:0 29 14] [244 0] 1 0
r 26.810402300 _4_ AGT  --- 516 tcp 1540 [13a 4 6 800] ------- [0:0 4:0 28 4] [238 0] 3 0
s 26.810402300 _4_ AGT  --- 528 ack 40 [0 0 0 0] ------- [4:0 0:0 32 0] [244 0] 0 0
r 26.810402300 _4_ RTR  --- 528 ack 40 [0 0 0 0] ------- [4:0 0:0 32 0] [244 0] 0 0
s 26.810402300 _4_ RTR  --- 528 ack 40 [0 0 0 0] ------- [4:0 0:0 30 6] [244 0] 0 0
r 26.812268818 _14_ RTR  --- 525 ack 40 [13a e 6 800] ------- [4:0 0:0 29 14] [235 0] 2 0
f 26.812268818 _14_ RTR  --- 525 ack 40 [13a e 6 800] ------- [4:0 0:0 28 0] [235 0] 2 0
r 26.826185199 _14_ RTR  --- 517 tcp 1540 [13a e 0 800] ------- [0:0 4:0 30 14] [239 0] 1 0
f 26.826185199 _14_ RTR  --- 517 tcp 1540 [13a e 0 800] ------- [0:0 4:0 29 6] [239 0] 1 0
r 26.840091988 _14_ RTR  --- 521 tcp 1540 [13a e 0 800] ------- [0:0 4:0 30 14] [240 0] 1 0
f 26.840091988 _14_ RTR  --- 521 tcp 1540 [13a e 0 800] ------- [0:0 4:0 29 6] [240 0] 1 0
r 26.853998778 _14_ RTR  --- 522 tcp 1540 [13a e 0 800] ------- [0:0 4:0 30 14] [241 0] 1 0
f 26.853998778 _14_ RTR  --- 522 tcp 1540 [13a e 0 800] ------- [0:0 4:0 29 6] [241 0] 1 0
r 26.856044871 _0_ AGT  --- 525 ack 40 [13a 0 e 800] ------- [4:0 0:0 28 0] [235 0] 3 0
s 26.856044871 _0_ AGT  --- 529 tcp 1540 [0 0 0 0] ------- [0:0 4:0 32 0] [244 0] 0 0
r 26.856044871 _0_ RTR  --- 529 tcp 1540 [0 0 0 0] ------- [0:0 4:0 32 0] [244 0] 0 0
s 26.856044871 _0_ RTR  --- 529 tcp 1540 [0 0 0 0] ------- [0:0 4:0 30 14] [244 0] 0 0
r 26.870110964 _14_ RTR  --- 523 tcp 1540 [13a e 0 800] ------- [0:0 4:0 30 14] [242 0] 1 0
f 26.870110964 _14_ RTR  --- 523 tcp 1540 [13a e 0 800] ------- [0:0 4:0 29 6] [242 0] 1 0
r 26.873004452 _14_ RTR  --- 526 ack 40 [13a e 6 800] ------- [4:0 0:0 29 14] [236 0] 2 0
f 26.873004452 _14_ RTR  --- 526 ack 40 [13a e 6 800] ------- [4:0 0:0 28 0] [236 0] 2 0
r 26.874910955 _14_ RTR  --- 527 ack 40 [13a e 6 800] ------- [4:0 0:0 29 14] [244 0] 2 0
f 26.874910955 _14_ RTR  --- 527 ack 40 [13a e 6 800] ------- [4:0 0:0 28 0] [244 0] 2 0
r 26.888876833 _6_ RTR  --- 517 tcp 1540 [13a 6 e 800] ------- [0:0 4:0 29 6] [239 0] 2 0
f 26.888876833 _6_ RTR  --- 517 tcp 1540 [13a 6 e 800] ------- [0:0 4:0 28 4] [239 0] 2 0
r 26.890833417 _6_ RTR  --- 528 ack 40 [13a 6 4 800] ------- [4:0 0:0 30 6] [244 0] 1 0
f 26.890833417 _6_ RTR  --- 528 ack 40 [13a 6 4 800] ------- [4:0 0:0 29 14] [244 0] 1 0
r 26.905079356 _4_ AGT  --- 517 tcp 1540 [13a 4 6 800] ------- [0:0 4:0 28 4] [239 0] 3 0
s 26.905079356 _4_ AGT  --- 530 ack 40 [0 0 0 0] ------- [4:0 0:0 32 0] [244 0] 0 0
r 26.905079356 _4_ RTR  --- 530 ack 40 [0 0 0 0] ------- [4:0 0:0 32 0] [244 0] 0 0
s 26.905079356 _4_ RTR  --- 530 ack 40 [0 0 0 0] ------- [4:0 0:0 30 6] [244 0] 0 0
r 26.906965293 _6_ RTR  --- 530 ack 40 [13a 6 4 800] ------- [4:0 0:0 30 6] [244 0] 1 0
f 26.906965293 _6_ RTR  --- 530 ack 40 [13a 6 4 800] ------- [4:0 0:0 29 14] [244 0] 1 0
r 26.920881801 _6_ RTR  --- 521 tcp 1540 [13a 6 e 800] ------- [0:0 4:0 29 6] [240 0] 2 0
f 26.920881801 _6_ RTR  --- 521 tcp 1540 [13a 6 e 800] ------- [0:0 4:0 28 4] [240 0] 2 0
r 26.922767685 _14_ RTR  --- 528 ack 40 [13a e 6 800] ------- [4:0 0:0 29 14] [244 0] 2 0
f 26.922767685 _14_ RTR  --- 528 ack 40 [13a e 6 800] ------- [4:0 0:0 28 0] [244 0] 2 0
r 26.936833570 _6_ RTR  --- 522 tcp 1540 [13a 6 e 800] ------- [0:0 4:0 29 6] [241 0] 2 0
f 26.936833570 _6_ RTR  --- 522 tcp 1540 [13a 6 e 800] ------- [0:0 4:0 28 4] [241 0] 2 0
r 26.938679457 _14_ RTR  --- 530 ack 40 [13a e 6 800] ------- [4:0 0:0 29 14] [244 0] 2 0
f 26.938679457 _14_ RTR  --- 530 ack 40 [13a e 6 800] ------- [4:0 0:0 28 0] [244 0] 2 0
r 26.952675836 _14_ RTR  --- 524 tcp 1540 [13a e 0 800] ------- [0:0 4:0 30 14] [243 0] 1 0
f 26.952675836 _14_ RTR  --- 524 tcp 1540 [13a e 0 800] ------- [0:0 4:0 29 6] [243 0] 1 0
r 26.966661725 _6_ RTR  --- 523 tcp 1540 [13a 6 e 800] ------- [0:0 4:0 29 6] [242 0] 2 0
f 26.966661725 _6_ RTR  --- 523 tcp 1540 [13a 6 e 800] ------- [0:0 4:0 28 4] [242 0] 2 0
r 26.980787654 _4_ AGT  --- 521 tcp 1540 [13a 4 6 800] ------- [0:0 4:0 28 4] [240 0] 3 0
s 26.980787654 _4_ AGT  --- 531 ack 40 [0 0 0 0] ------- [4:0 0:0 32 0] [244 0] 0 0
r 26.980787654 _4_ RTR  --- 531 ack 40 [0 0 0 0] ------- [4:0 0:0 32 0] [244 0] 0 0
s 26.980787654 _4_ RTR  --- 531 ack 40 [0 0 0 0] ------- [4:0 0:0 30 6] [244 0] 0 0
r 26.982793581 _6_ RTR  --- 531 ack 40 [13a 6 4 800] ------- [4:0 0:0 30 6] [244 0] 1 0
f 26.982793581 _6_ RTR  --- 531 ack 40 [13a 6 4 800] ------- [4:0 0:0 29 14] [244 0] 1 0
r 26.996719508 _4_ AGT  --- 522 tcp 1540 [13a 4 6 800] ------- [0:0 4:0 28 4] [241 0] 3 0
s 26.996719508 _4_ AGT  --- 532 ack 40 [0 0 0 0] ------- [4:0 0:0 32 0] [244 0] 0 0
r 26.996719508 _4_ RTR  --- 532 ack 40 [0 0 0 0] ------- [4:0 0:0 32 0] [244 0] 0 0
s 26.996719508 _4_ RTR  --- 532 ack 40 [0 0 0 0] ------- [4:0 0:0 30 6] [244 0] 0 0
r 26.998865433 _6_ RTR  --- 532 ack 40 [13a 6 4 800] ------- [4:0 0:0 30 6] [244 0] 1 0
f 26.998865433 _6_ RTR  --- 532 ack 40 [13a 6 4 800] ------- [4:0 0:0 29 14] [244 0] 1 0
r 27.000822164 _0_ AGT  --- 526 ack 40 [13a 0 e 800] ------- [4:0 0:0 28 0] [236 0] 3 0
s 27.000822164 _0_ AGT  --- 533 tcp 1540 [0 0 0 0] ------- [0:0 4:0 32 0] [245 0] 0 0
r 27.000822164 _0_ RTR  --- 533 tcp 1540 [0 0 0 0] ------- [0:0 4:0 32 0] [245 0] 0 0
s 27.000822164 _0_ RTR  --- 533 tcp 1540 [0 0 0 0] ------- [0:0 4:0 30 14] [245 0] 0 0
r 27.014908265 _14_ RTR  --- 529 tcp 1540 [13a e 0 800] ------- [0:0 4:0 30 14] [244 0] 1 0
f 27.014908265 _14_ RTR  --- 529 tcp 1540 [13a e 0 800] ------- [0:0 4:0 29 6] [244 0] 1 0
r 27.028815067 _14_ RTR  --- 533 tcp 1540 [13a e 0 800] ------- [0:0 4:0 30 14] [245 0] 1 0
f 27.028815067 _14_ RTR  --- 533 tcp 1540 [13a e 0 800] ------- [0:0 4:0 29 6] [245 0] 1 0
r 27.042771197 _4_ AGT  --- 523 tcp 1540 [13a 4 6 800] ------- [0:0 4:0 28 4] [242 0] 3 0
s 27.042771197 _4_ AGT  --- 534 ack 40 [0 0 0 0] ------- [4:0 0:0 32 0] [244 0] 0 0
r 27.042771197 _4_ RTR  --- 534 ack 40 [0 0 0 0] ------- [4:0 0:0 32 0] [244 0] 0 0
s 27.042771197 _4_ RTR  --- 534 ack 40 [0 0 0 0] ------- [4:0 0:0 30 6] [244 0] 0 0
r 27.044817739 _14_ RTR  --- 531 ack 40 [13a e 6 800] ------- [4:0 0:0 29 14] [244 0] 2 0
f 27.044817739 _14_ RTR  --- 531 ack 40 [13a e 6 800] ------- [4:0 0:0 28 0] [244 0] 2 0
r 27.047550932 _6_ RTR  --- 534 ack 40 [13a 6 4 800] ------- [4:0 0:0 30 6] [244 0] 1 0
f 27.047550932 _6_ RTR  --- 534 ack 40 [13a 6 4 800] ------- [4:0 0:0 29 14] [244 0] 1 0
r 27.049607668 _0_ AGT  --- 527 ack 40 [13a 0 e 800] ------- [4:0 0:0 28 0] [244 0] 3 0
s 27.049607668 _0_ AGT  --- 535 tcp 1540 [0 0 0 0] ------- [0:0 4:0 32 0] [246 0] 0 0
r 27.049607668 _0_ RTR  --- 535 tcp 1540 [0 0 0 0] ------- [0:0 4:0 32 0] [246 0] 0 0
s 27.049607668 _0_ AGT  --- 536 tcp 1540 [0 0 0 0] ------- [0:0 4:0 32 0] [247 0] 0 0
r 27.049607668 _0_ RTR  --- 536 tcp 1540 [0 0 0 0] ------- [0:0 4:0 32 0] [247 0] 0 0
s 27.049607668 _0_ AGT  --- 537 tcp 1540 [0 0 0 0] ------- [0:0 4:0 32 0] [248 0] 0 0
r 27.049607668 _0_ RTR  --- 537 tcp 1540 [0 0 0 0] ------- [0:0 4:0 32 0] [248 0] 0 0
s 27.049607668 _0_ AGT  --- 538 tcp 1540 [0 0 0 0] ------- [0:0 4:0 32 0] [249 0] 0 0
r 27.049607668 _0_ RTR  --- 538 tcp 1540 [0 0 0 0] ------- [0:0 4:0 32 0] [249 0] 0 0
s 27.049607668 _0_ AGT  --- 539 tcp 1540 [0 0 0 0] ------- [0:0 4:0 32 0] [250 0] 0 0
r 27.049607668 _0_ RTR  --- 539 tcp 1540 [0 0 0 0] ------- [0:0 4:0 32 0] [250 0] 0 0
s 27.049607668 _0_ AGT  --- 540 tcp 1540 [0 0 0 0] ------- [0:0 4:0 32 0] [251 0] 0 0
r 27.049607668 _0_ RTR  --- 540 tcp 1540 [0 0 0 0] ------- [0:0 4:0 32 0] [251 0] 0 0
s 27.049607668 _0_ AGT  --- 541 tcp 1540 [0 0 0 0] ------- [0:0 4:0 32 0] [252 0] 0 0
r 27.049607668 _0_ RTR  --- 541 tcp 1540 [0 0 0 0] ------- [0:0 4:0 32 0] [252 0] 0 0
s 27.049607668 _0_ AGT  --- 542 tcp 1540 [0 0 0 0] ------- [0:0 4:0 32 0] [253 0] 0 0
r 27.049607668 _0_ RTR  --- 542 tcp 1540 [0 0 0 0] ------- [0:0 4:0 32 0] [253 0] 0 0
s 27.049607668 _0_ RTR  --- 535 tcp 1540 [0 0 0 0] ------- [0:0 4:0 30 14] [246 0] 0 0
s 27.049607668 _0_ RTR  --- 536 tcp 1540 [0 0 0 0] ------- [0:0 4:0 30 14] [247 0] 0 0
s 27.049607668 _0_ RTR  --- 537 tcp 1540 [0 0 0 0] ------- [0:0 4:0 30 14] [248 0] 0 0
s 27.049607668 _0_ RTR  --- 538 tcp 1540 [0 0 0 0] ------- [0:0 4:0 30 14] [249 0] 0 0
s 27.049607668 _0_ RTR  --- 539 tcp 1540 [0 0 0 0] ------- [0:0 4:0 30 14] [250 0] 0 0
s 27.049607668 _0_ RTR  --- 540 tcp 1540 [0 0 0 0] ------- [0:0 4:0 30 14] [251 0] 0 0
s 27.049607668 _0_ RTR  --- 541 tcp 1540 [0 0 0 0] ------- [0:0 4:0 30 14] [252 0] 0 0
s 27.049607668 _0_ RTR  --- 542 tcp 1540 [0 0 0 0] ------- [0:0 4:0 30 14] [253 0] 0 0