n -t * -s 0  -x 22 -y 11 -Z 0 -z 25  -v circle -c black
n -t * -s 1  -x 740 -y 262 -Z 0 -z 25  -v circle -c black
n -t * -s 2  -x 288 -y 529 -Z 0 -z 25  -v circle -c black
n -t * -s 3  -x 121 -y 944 -Z 0 -z 25  -v circle -c black
n -t * -s 4  -x 378 -y 700 -Z 0 -z 25  -v circle -c black
n -t * -s 5  -x 575 -y 529 -Z 0 -z 25  -v circle -c black
n -t * -s 6  -x 436 -y 176 -Z 0 -z 25  -v circle -c black
n -t * -s 7  -x 1005 -y 724 -Z 0 -z 25  -v circle -c black
n -t * -s 8  -x 547 -y 995 -Z 0 -z 25  -v circle -c black
n -t * -s 9  -x 454 -y 747 -Z 0 -z 25  -v circle -c black
n -t * -s 10  -x 939 -y 263 -Z 0 -z 25  -v circle -c black
n -t * -s 11  -x 670 -y 99 -Z 0 -z 25  -v circle -c black
n -t * -s 12  -x 38 -y 714 -Z 0 -z 25  -v circle -c black
n -t * -s 13  -x 356 -y 195 -Z 0 -z 25  -v circle -c black
n -t * -s 14  -x 129 -y 374 -Z 0 -z 25  -v circle -c black
V -t * -v 1.0a5 -a 0
W -t * -x 1000 -y 1000
A -t * -n 1 -p 0 -o 0x7fffffff -c 30 -a 1
A -t * -h 1 -m 1073741823 -s 0
n -t 1.000000 -s 0 -x 22.000000 -y 11.000000 -U 2.931595 -V 7.443504 -T 130.986700
n -t 1.000000 -s 1 -x 740.000000 -y 262.000000 -U -0.528685 -V 0.848818 -T 752.811397
n -t 1.000000 -s 2 -x 288.000000 -y 529.000000 -U 1.614503 -V -4.732164 -T 17.962182
n -t 1.000000 -s 3 -x 121.000000 -y 944.000000 -U 0.584111 -V -1.912803 -T 155.792330
n -t 1.000000 -s 4 -x 378.000000 -y 700.000000 -U -3.092082 -V -5.141890 -T 86.349580
n -t 1.000000 -s 5 -x 575.000000 -y 529.000000 -U -2.658227 -V -1.390622 -T 186.966723
n -t 1.000000 -s 6 -x 436.000000 -y 176.000000 -U -4.774491 -V 7.629170 -T 59.901668
n -t 1.000000 -s 7 -x 1005.000000 -y 724.000000 -U -5.210151 -V -4.674861 -T 56.044443
n -t 1.000000 -s 8 -x 547.000000 -y 995.000000 -U 6.986515 -V -0.434297 -T 52.959168
n -t 1.000000 -s 9 -x 454.000000 -y 747.000000 -U 4.686776 -V -6.483373 -T 51.207910
n -t 1.000000 -s 10 -x 939.000000 -y 263.000000 -U -7.439759 -V 5.064581 -T 108.202428
n -t 1.000000 -s 11 -x 670.000000 -y 99.000000 -U -7.669921 -V 4.708749 -T 61.799856
n -t 1.000000 -s 12 -x 38.000000 -y 714.000000 -U 1.950708 -V -0.441291 -T 199.414769
n -t 1.000000 -s 13 -x 356.000000 -y 195.000000 -U 9.978778 -V 0.651144 -T 61.430367
n -t 1.000000 -s 14 -x 129.000000 -y 374.000000 -U 6.859829 -V -7.276177 -T 50.438577
+ -t 1.000000000 -s 0 -d -1 -p tcp -e 40 -c 2 -a 0 -i 0 -k AGT 
- -t 1.000000000 -s 0 -d -1 -p tcp -e 40 -c 2 -a 0 -i 0 -k AGT
h -t 1.000000000 -s 0 -d -1 -p tcp -e 40 -c 2 -a 0 -i 0 -k AGT
+ -t 1.000000000 -s 0 -d -1 -p AODV -e 48 -c 2 -a 0 -i 0 -k RTR 
- -t 1.000000000 -s 0 -d -1 -p AODV -e 48 -c 2 -a 0 -i 0 -k RTR
h -t 1.000000000 -s 0 -d -1 -p AODV -e 48 -c 2 -a 0 -i 0 -k RTR
+ -t 3.000000000 -s 0 -d -1 -p AODV -e 48 -c 2 -a 0 -i 0 -k RTR 
- -t 3.000000000 -s 0 -d -1 -p AODV -e 48 -c 2 -a 0 -i 0 -k RTR
h -t 3.000000000 -s 0 -d -1 -p AODV -e 48 -c 2 -a 0 -i 0 -k RTR
+ -t 4.000000000 -s 0 -d -1 -p tcp -e 40 -c 2 -a 0 -i 1 -k AGT 
- -t 4.000000000 -s 0 -d -1 -p tcp -e 40 -c 2 -a 0 -i 1 -k AGT
h -t 4.000000000 -s 0 -d -1 -p tcp -e 40 -c 2 -a 0 -i 1 -k AGT
+ -t 7.000000000 -s 0 -d -1 -p AODV -e 48 -c 2 -a 0 -i 0 -k RTR 
- -t 7.000000000 -s 0 -d -1 -p AODV -e 48 -c 2 -a 0 -i 0 -k RTR
h -t 7.000000000 -s 0 -d -1 -p AODV -e 48 -c 2 -a 0 -i 0 -k RTR
+ -t 10.000000000 -s 0 -d -1 -p tcp -e 40 -c 2 -a 0 -i 2 -k AGT 
- -t 10.000000000 -s 0 -d -1 -p tcp -e 40 -c 2 -a 0 -i 2 -k AGT
h -t 10.000000000 -s 0 -d -1 -p tcp -e 40 -c 2 -a 0 -i 2 -k AGT
+ -t 12.500000000 -s 0 -d -1 -p AODV -e 48 -c 2 -a 0 -i 0 -k RTR 
- -t 12.500000000 -s 0 -d -1 -p AODV -e 48 -c 2 -a 0 -i 0 -k RTR
h -t 12.500000000 -s 0 -d -1 -p AODV -e 48 -c 2 -a 0 -i 0 -k RTR
r -t 12.501148821 -s 14 -d -1 -p AODV -e 48 -c 2 -a 0 -i 0 -k RTR
+ -t 12.507537473 -s 14 -d -1 -p AODV -e 48 -c 2 -a 0 -i 0 -k RTR 
- -t 12.507537473 -s 14 -d -1 -p AODV -e 48 -c 2 -a 0 -i 0 -k RTR
h -t 12.507537473 -s 14 -d -1 -p AODV -e 48 -c 2 -a 0 -i 0 -k RTR
r -t 12.508746056 -s 6 -d -1 -p AODV -e 48 -c 2 -a 0 -i 0 -k RTR
r -t 12.508746169 -s 2 -d -1 -p AODV -e 48 -c 2 -a 0 -i 0 -k RTR
r -t 12.508746293 -s 0 -d -1 -p AODV -e 48 -c 2 -a 0 -i 0 -k RTR
+ -t 12.509174115 -s 2 -d -1 -p AODV -e 48 -c 2 -a 0 -i 0 -k RTR 
- -t 12.509174115 -s 2 -d -1 -p AODV -e 48 -c 2 -a 0 -i 0 -k RTR
h -t 12.509174115 -s 2 -d -1 -p AODV -e 48 -c 2 -a 0 -i 0 -k RTR
r -t 12.510282682 -s 4 -d -1 -p AODV -e 48 -c 2 -a 0 -i 0 -k RTR
+ -t 12.510282682 -s 4 -d 2 -p AODV -e 44 -c 2 -a 0 -i 0 -k RTR 
- -t 12.510282682 -s 4 -d 2 -p AODV -e 44 -c 2 -a 0 -i 0 -k RTR
h -t 12.510282682 -s 4 -d 2 -p AODV -e 44 -c 2 -a 0 -i 0 -k RTR
r -t 12.510282812 -s 14 -d -1 -p AODV -e 48 -c 2 -a 0 -i 0 -k RTR
r -t 12.510282860 -s 6 -d -1 -p AODV -e 48 -c 2 -a 0 -i 0 -k RTR
r -t 12.510282918 -s 5 -d -1 -p AODV -e 48 -c 2 -a 0 -i 0 -k RTR
+ -t 12.510387510 -s 6 -d -1 -p AODV -e 48 -c 2 -a 0 -i 0 -k RTR 
- -t 12.510387510 -s 6 -d -1 -p AODV -e 48 -c 2 -a 0 -i 0 -k RTR
h -t 12.510387510 -s 6 -d -1 -p AODV -e 48 -c 2 -a 0 -i 0 -k RTR
+ -t 12.514824651 -s 2 -d 14 -p AODV -e 44 -c 2 -a 0 -i 0 -k RTR 
- -t 12.514824651 -s 2 -d 14 -p AODV -e 44 -c 2 -a 0 -i 0 -k RTR
h -t 12.514824651 -s 2 -d 14 -p AODV -e 44 -c 2 -a 0 -i 0 -k RTR
+ -t 12.518880195 -s 5 -d -1 -p AODV -e 48 -c 2 -a 0 -i 0 -k RTR 
- -t 12.518880195 -s 5 -d -1 -p AODV -e 48 -c 2 -a 0 -i 0 -k RTR
h -t 12.518880195 -s 5 -d -1 -p AODV -e 48 -c 2 -a 0 -i 0 -k RTR
+ -t 12.519556528 -s 14 -d 0 -p AODV -e 44 -c 2 -a 0 -i 0 -k RTR 
- -t 12.519556528 -s 14 -d 0 -p AODV -e 44 -c 2 -a 0 -i 0 -k RTR
h -t 12.519556528 -s 14 -d 0 -p AODV -e 44 -c 2 -a 0 -i 0 -k RTR
r -t 12.521667474 -s 13 -d -1 -p AODV -e 48 -c 2 -a 0 -i 0 -k RTR
r -t 12.521667694 -s 14 -d -1 -p AODV -e 48 -c 2 -a 0 -i 0 -k RTR
r -t 12.521667855 -s 2 -d -1 -p AODV -e 48 -c 2 -a 0 -i 0 -k RTR
r -t 12.521667875 -s 11 -d -1 -p AODV -e 48 -c 2 -a 0 -i 0 -k RTR
r -t 12.523370649 -s 9 -d -1 -p AODV -e 48 -c 2 -a 0 -i 0 -k RTR
r -t 12.523370901 -s 4 -d -1 -p AODV -e 48 -c 2 -a 0 -i 0 -k RTR
+ -t 12.524079730 -s 13 -d -1 -p AODV -e 48 -c 2 -a 0 -i 0 -k RTR 
- -t 12.524079730 -s 13 -d -1 -p AODV -e 48 -c 2 -a 0 -i 0 -k RTR
h -t 12.524079730 -s 13 -d -1 -p AODV -e 48 -c 2 -a 0 -i 0 -k RTR
+ -t 12.527747252 -s 0 -d 14 -p tcp -e 40 -c 2 -a 0 -i 0 -k RTR 
- -t 12.527747252 -s 0 -d 14 -p tcp -e 40 -c 2 -a 0 -i 0 -k RTR
h -t 12.527747252 -s 0 -d 14 -p tcp -e 40 -c 2 -a 0 -i 0 -k RTR
+ -t 12.529673713 -s 14 -d 2 -p tcp -e 40 -c 2 -a 0 -i 0 -k RTR 
- -t 12.529673713 -s 14 -d 2 -p tcp -e 40 -c 2 -a 0 -i 0 -k RTR
h -t 12.529673713 -s 14 -d 2 -p tcp -e 40 -c 2 -a 0 -i 0 -k RTR
+ -t 12.530178940 -s 11 -d -1 -p AODV -e 48 -c 2 -a 0 -i 0 -k RTR 
- -t 12.530178940 -s 11 -d -1 -p AODV -e 48 -c 2 -a 0 -i 0 -k RTR
h -t 12.530178940 -s 11 -d -1 -p AODV -e 48 -c 2 -a 0 -i 0 -k RTR
r -t 12.531271000 -s 6 -d -1 -p AODV -e 48 -c 2 -a 0 -i 0 -k RTR
r -t 12.531271040 -s 11 -d -1 -p AODV -e 48 -c 2 -a 0 -i 0 -k RTR
r -t 12.532349443 -s 13 -d -1 -p AODV -e 48 -c 2 -a 0 -i 0 -k RTR
r -t 12.532349683 -s 1 -d -1 -p AODV -e 48 -c 2 -a 0 -i 0 -k RTR
r -t 12.532349804 -s 6 -d -1 -p AODV -e 48 -c 2 -a 0 -i 0 -k RTR
+ -t 12.532420103 -s 9 -d -1 -p AODV -e 48 -c 2 -a 0 -i 0 -k RTR 
- -t 12.532420103 -s 9 -d -1 -p AODV -e 48 -c 2 -a 0 -i 0 -k RTR
h -t 12.532420103 -s 9 -d -1 -p AODV -e 48 -c 2 -a 0 -i 0 -k RTR
+ -t 12.532457767 -s 1 -d -1 -p AODV -e 48 -c 2 -a 0 -i 0 -k RTR 
- -t 12.532457767 -s 1 -d -1 -p AODV -e 48 -c 2 -a 0 -i 0 -k RTR
h -t 12.532457767 -s 1 -d -1 -p AODV -e 48 -c 2 -a 0 -i 0 -k RTR
+ -t 12.534286456 -s 2 -d 4 -p tcp -e 40 -c 2 -a 0 -i 0 -k RTR 
- -t 12.534286456 -s 2 -d 4 -p tcp -e 40 -c 2 -a 0 -i 0 -k RTR
h -t 12.534286456 -s 2 -d 4 -p tcp -e 40 -c 2 -a 0 -i 0 -k RTR
r -t 12.536392156 -s 4 -d 4 -p tcp -e 40 -c 2 -a 0 -i 0 -k AGT
+ -t 12.536392156 -s 4 -d -1 -p ack -e 40 -c 2 -a 0 -i 3 -k AGT 
- -t 12.536392156 -s 4 -d -1 -p ack -e 40 -c 2 -a 0 -i 3 -k AGT
h -t 12.536392156 -s 4 -d -1 -p ack -e 40 -c 2 -a 0 -i 3 -k AGT
+ -t 12.536392156 -s 4 -d 2 -p ack -e 40 -c 2 -a 0 -i 3 -k RTR 
- -t 12.536392156 -s 4 -d 2 -p ack -e 40 -c 2 -a 0 -i 3 -k RTR
h -t 12.536392156 -s 4 -d 2 -p ack -e 40 -c 2 -a 0 -i 3 -k RTR
+ -t 12.537747252 -s 0 -d 14 -p tcp -e 40 -c 2 -a 0 -i 1 -k RTR 
- -t 12.537747252 -s 0 -d 14 -p tcp -e 40 -c 2 -a 0 -i 1 -k RTR
h -t 12.537747252 -s 0 -d 14 -p tcp -e 40 -c 2 -a 0 -i 1 -k RTR
+ -t 12.538497857 -s 2 -d 14 -p ack -e 40 -c 2 -a 0 -i 3 -k RTR 
- -t 12.538497857 -s 2 -d 14 -p ack -e 40 -c 2 -a 0 -i 3 -k RTR
h -t 12.538497857 -s 2 -d 14 -p ack -e 40 -c 2 -a 0 -i 3 -k RTR
+ -t 12.540567835 -s 14 -d 0 -p ack -e 40 -c 2 -a 0 -i 3 -k RTR 
- -t 12.540567835 -s 14 -d 0 -p ack -e 40 -c 2 -a 0 -i 3 -k RTR
h -t 12.540567835 -s 14 -d 0 -p ack -e 40 -c 2 -a 0 -i 3 -k RTR
r -t 12.542554295 -s 0 -d 0 -p ack -e 40 -c 2 -a 0 -i 3 -k AGT
+ -t 12.542554295 -s 0 -d -1 -p tcp -e 1540 -c 2 -a 0 -i 4 -k AGT 
- -t 12.542554295 -s 0 -d -1 -p tcp -e 1540 -c 2 -a 0 -i 4 -k AGT
h -t 12.542554295 -s 0 -d -1 -p tcp -e 1540 -c 2 -a 0 -i 4 -k AGT
+ -t 12.542554295 -s 0 -d 14 -p tcp -e 1540 -c 2 -a 0 -i 4 -k RTR 
- -t 12.542554295 -s 0 -d 14 -p tcp -e 1540 -c 2 -a 0 -i 4 -k RTR
h -t 12.542554295 -s 0 -d 14 -p tcp -e 1540 -c 2 -a 0 -i 4 -k RTR
r -t 12.543877638 -s 5 -d -1 -p AODV -e 48 -c 2 -a 0 -i 0 -k RTR
r -t 12.543877657 -s 4 -d -1 -p AODV -e 48 -c 2 -a 0 -i 0 -k RTR
r -t 12.545321057 -s 10 -d -1 -p AODV -e 48 -c 2 -a 0 -i 0 -k RTR
r -t 12.545321270 -s 11 -d -1 -p AODV -e 48 -c 2 -a 0 -i 0 -k RTR
+ -t 12.547020754 -s 14 -d 2 -p tcp -e 40 -c 2 -a 0 -i 1 -k RTR 
- -t 12.547020754 -s 14 -d 2 -p tcp -e 40 -c 2 -a 0 -i 1 -k RTR
h -t 12.547020754 -s 14 -d 2 -p tcp -e 40 -c 2 -a 0 -i 1 -k RTR
+ -t 12.547747252 -s 0 -d 14 -p tcp -e 40 -c 2 -a 0 -i 2 -k RTR 
- -t 12.547747252 -s 0 -d 14 -p tcp -e 40 -c 2 -a 0 -i 2 -k RTR
h -t 12.547747252 -s 0 -d 14 -p tcp -e 40 -c 2 -a 0 -i 2 -k RTR
+ -t 12.554789219 -s 10 -d -1 -p AODV -e 48 -c 2 -a 0 -i 0 -k RTR 
- -t 12.554789219 -s 10 -d -1 -p AODV -e 48 -c 2 -a 0 -i 0 -k RTR
h -t 12.554789219 -s 10 -d -1 -p AODV -e 48 -c 2 -a 0 -i 0 -k RTR
r -t 12.556217649 -s 1 -d -1 -p AODV -e 48 -c 2 -a 0 -i 0 -k RTR
+ -t 12.560868033 -s 14 -d 2 -p tcp -e 1540 -c 2 -a 0 -i 4 -k RTR 
- -t 12.560868033 -s 14 -d 2 -p tcp -e 1540 -c 2 -a 0 -i 4 -k RTR
h -t 12.560868033 -s 14 -d 2 -p tcp -e 1540 -c 2 -a 0 -i 4 -k RTR
+ -t 12.562815310 -s 14 -d 2 -p tcp -e 40 -c 2 -a 0 -i 2 -k RTR 
- -t 12.562815310 -s 14 -d 2 -p tcp -e 40 -c 2 -a 0 -i 2 -k RTR
h -t 12.562815310 -s 14 -d 2 -p tcp -e 40 -c 2 -a 0 -i 2 -k RTR
+ -t 12.564781400 -s 2 -d 4 -p tcp -e 40 -c 2 -a 0 -i 1 -k RTR 
- -t 12.564781400 -s 2 -d 4 -p tcp -e 40 -c 2 -a 0 -i 1 -k RTR
h -t 12.564781400 -s 2 -d 4 -p tcp -e 40 -c 2 -a 0 -i 1 -k RTR
r -t 12.566647100 -s 4 -d 4 -p tcp -e 40 -c 2 -a 0 -i 1 -k AGT
+ -t 12.566647100 -s 4 -d -1 -p ack -e 40 -c 2 -a 0 -i 5 -k AGT 
- -t 12.566647100 -s 4 -d -1 -p ack -e 40 -c 2 -a 0 -i 5 -k AGT
h -t 12.566647100 -s 4 -d -1 -p ack -e 40 -c 2 -a 0 -i 5 -k AGT
+ -t 12.566647100 -s 4 -d 2 -p ack -e 40 -c 2 -a 0 -i 5 -k RTR 
- -t 12.566647100 -s 4 -d 2 -p ack -e 40 -c 2 -a 0 -i 5 -k RTR
h -t 12.566647100 -s 4 -d 2 -p ack -e 40 -c 2 -a 0 -i 5 -k RTR
+ -t 12.568592800 -s 2 -d 14 -p ack -e 40 -c 2 -a 0 -i 5 -k RTR 
- -t 12.568592800 -s 2 -d 14 -p ack -e 40 -c 2 -a 0 -i 5 -k RTR
h -t 12.568592800 -s 2 -d 14 -p ack -e 40 -c 2 -a 0 -i 5 -k RTR
+ -t 12.570518890 -s 14 -d 0 -p ack -e 40 -c 2 -a 0 -i 5 -k RTR 
- -t 12.570518890 -s 14 -d 0 -p ack -e 40 -c 2 -a 0 -i 5 -k RTR
h -t 12.570518890 -s 14 -d 0 -p ack -e 40 -c 2 -a 0 -i 5 -k RTR
+ -t 12.584744980 -s 2 -d 4 -p tcp -e 1540 -c 2 -a 0 -i 4 -k RTR 
- -t 12.584744980 -s 2 -d 4 -p tcp -e 1540 -c 2 -a 0 -i 4 -k RTR
h -t 12.584744980 -s 2 -d 4 -p tcp -e 1540 -c 2 -a 0 -i 4 -k RTR
+ -t 12.586771767 -s 2 -d 4 -p tcp -e 40 -c 2 -a 0 -i 2 -k RTR 
- -t 12.586771767 -s 2 -d 4 -p tcp -e 40 -c 2 -a 0 -i 2 -k RTR
h -t 12.586771767 -s 2 -d 4 -p tcp -e 40 -c 2 -a 0 -i 2 -k RTR
r -t 12.600657467 -s 4 -d 4 -p tcp -e 1540 -c 2 -a 0 -i 4 -k AGT
+ -t 12.600657467 -s 4 -d -1 -p ack -e 40 -c 2 -a 0 -i 6 -k AGT 
- -t 12.600657467 -s 4 -d -1 -p ack -e 40 -c 2 -a 0 -i 6 -k AGT
h -t 12.600657467 -s 4 -d -1 -p ack -e 40 -c 2 -a 0 -i 6 -k AGT
+ -t 12.600657467 -s 4 -d 2 -p ack -e 40 -c 2 -a 0 -i 6 -k RTR 
- -t 12.600657467 -s 4 -d 2 -p ack -e 40 -c 2 -a 0 -i 6 -k RTR
h -t 12.600657467 -s 4 -d 2 -p ack -e 40 -c 2 -a 0 -i 6 -k RTR
+ -t 12.602823167 -s 2 -d 14 -p ack -e 40 -c 2 -a 0 -i 6 -k RTR 
- -t 12.602823167 -s 2 -d 14 -p ack -e 40 -c 2 -a 0 -i 6 -k RTR
h -t 12.602823167 -s 2 -d 14 -p ack -e 40 -c 2 -a 0 -i 6 -k RTR
r -t 12.604720305 -s 0 -d 0 -p ack -e 40 -c 2 -a 0 -i 5 -k AGT
+ -t 12.604720305 -s 0 -d -1 -p tcp -e 1540 -c 2 -a 0 -i 7 -k AGT 
- -t 12.604720305 -s 0 -d -1 -p tcp -e 1540 -c 2 -a 0 -i 7 -k AGT
h -t 12.604720305 -s 0 -d -1 -p tcp -e 1540 -c 2 -a 0 -i 7 -k AGT
+ -t 12.604720305 -s 0 -d 14 -p tcp -e 1540 -c 2 -a 0 -i 7 -k RTR 
- -t 12.604720305 -s 0 -d 14 -p tcp -e 1540 -c 2 -a 0 -i 7 -k RTR
h -t 12.604720305 -s 0 -d 14 -p tcp -e 1540 -c 2 -a 0 -i 7 -k RTR
+ -t 12.618606759 -s 14 -d 2 -p tcp -e 1540 -c 2 -a 0 -i 7 -k RTR 
- -t 12.618606759 -s 14 -d 2 -p tcp -e 1540 -c 2 -a 0 -i 7 -k RTR
h -t 12.618606759 -s 14 -d 2 -p tcp -e 1540 -c 2 -a 0 -i 7 -k RTR
r -t 12.620703149 -s 4 -d 4 -p tcp -e 40 -c 2 -a 0 -i 2 -k AGT
+ -t 12.620703149 -s 4 -d -1 -p ack -e 40 -c 2 -a 0 -i 8 -k AGT 
- -t 12.620703149 -s 4 -d -1 -p ack -e 40 -c 2 -a 0 -i 8 -k AGT
h -t 12.620703149 -s 4 -d -1 -p ack -e 40 -c 2 -a 0 -i 8 -k AGT
+ -t 12.620703149 -s 4 -d 2 -p ack -e 40 -c 2 -a 0 -i 8 -k RTR 
- -t 12.620703149 -s 4 -d 2 -p ack -e 40 -c 2 -a 0 -i 8 -k RTR
h -t 12.620703149 -s 4 -d 2 -p ack -e 40 -c 2 -a 0 -i 8 -k RTR
+ -t 12.622969805 -s 14 -d 0 -p ack -e 40 -c 2 -a 0 -i 6 -k RTR 
- -t 12.622969805 -s 14 -d 0 -p ack -e 40 -c 2 -a 0 -i 6 -k RTR
h -t 12.622969805 -s 14 -d 0 -p ack -e 40 -c 2 -a 0 -i 6 -k RTR
+ -t 12.637015895 -s 2 -d 4 -p tcp -e 1540 -c 2 -a 0 -i 7 -k RTR 
- -t 12.637015895 -s 2 -d 4 -p tcp -e 1540 -c 2 -a 0 -i 7 -k RTR
h -t 12.637015895 -s 2 -d 4 -p tcp -e 1540 -c 2 -a 0 -i 7 -k RTR
+ -t 12.639052149 -s 2 -d 14 -p ack -e 40 -c 2 -a 0 -i 8 -k RTR 
- -t 12.639052149 -s 2 -d 14 -p ack -e 40 -c 2 -a 0 -i 8 -k RTR
h -t 12.639052149 -s 2 -d 14 -p ack -e 40 -c 2 -a 0 -i 8 -k RTR
r -t 12.653017848 -s 4 -d 4 -p tcp -e 1540 -c 2 -a 0 -i 7 -k AGT
+ -t 12.653017848 -s 4 -d -1 -p ack -e 40 -c 2 -a 0 -i 9 -k AGT 
- -t 12.653017848 -s 4 -d -1 -p ack -e 40 -c 2 -a 0 -i 9 -k AGT
h -t 12.653017848 -s 4 -d -1 -p ack -e 40 -c 2 -a 0 -i 9 -k AGT
+ -t 12.653017848 -s 4 -d 2 -p ack -e 40 -c 2 -a 0 -i 9 -k RTR 
- -t 12.653017848 -s 4 -d 2 -p ack -e 40 -c 2 -a 0 -i 9 -k RTR
h -t 12.653017848 -s 4 -d 2 -p ack -e 40 -c 2 -a 0 -i 9 -k RTR
+ -t 12.655023547 -s 2 -d 14 -p ack -e 40 -c 2 -a 0 -i 9 -k RTR 
- -t 12.655023547 -s 2 -d 14 -p ack -e 40 -c 2 -a 0 -i 9 -k RTR
h -t 12.655023547 -s 2 -d 14 -p ack -e 40 -c 2 -a 0 -i 9 -k RTR
r -t 12.656920681 -s 0 -d 0 -p ack -e 40 -c 2 -a 0 -i 6 -k AGT
+ -t 12.656920681 -s 0 -d -1 -p tcp -e 1540 -c 2 -a 0 -i 10 -k AGT 
- -t 12.656920681 -s 0 -d -1 -p tcp -e 1540 -c 2 -a 0 -i 10 -k AGT
h -t 12.656920681 -s 0 -d -1 -p tcp -e 1540 -c 2 -a 0 -i 10 -k AGT
+ -t 12.656920681 -s 0 -d 14 -p tcp -e 1540 -c 2 -a 0 -i 10 -k RTR 
- -t 12.656920681 -s 0 -d 14 -p tcp -e 1540 -c 2 -a 0 -i 10 -k RTR
h -t 12.656920681 -s 0 -d 14 -p tcp -e 1540 -c 2 -a 0 -i 10 -k RTR
+ -t 12.670787130 -s 14 -d 2 -p tcp -e 1540 -c 2 -a 0 -i 10 -k RTR 
- -t 12.670787130 -s 14 -d 2 -p tcp -e 1540 -c 2 -a 0 -i 10 -k RTR
h -t 12.670787130 -s 14 -d 2 -p tcp -e 1540 -c 2 -a 0 -i 10 -k RTR
+ -t 12.672743910 -s 14 -d 0 -p ack -e 40 -c 2 -a 0 -i 8 -k RTR 
- -t 12.672743910 -s 14 -d 0 -p ack -e 40 -c 2 -a 0 -i 8 -k RTR
h -t 12.672743910 -s 14 -d 0 -p ack -e 40 -c 2 -a 0 -i 8 -k RTR
+ -t 12.674750696 -s 14 -d 0 -p ack -e 40 -c 2 -a 0 -i 9 -k RTR 
- -t 12.674750696 -s 14 -d 0 -p ack -e 40 -c 2 -a 0 -i 9 -k RTR
h -t 12.674750696 -s 14 -d 0 -p ack -e 40 -c 2 -a 0 -i 9 -k RTR
+ -t 12.688836786 -s 2 -d 4 -p tcp -e 1540 -c 2 -a 0 -i 10 -k RTR 
- -t 12.688836786 -s 2 -d 4 -p tcp -e 1540 -c 2 -a 0 -i 10 -k RTR
h -t 12.688836786 -s 2 -d 4 -p tcp -e 1540 -c 2 -a 0 -i 10 -k RTR
r -t 12.691063928 -s 0 -d 0 -p ack -e 40 -c 2 -a 0 -i 8 -k AGT
+ -t 12.691063928 -s 0 -d -1 -p tcp -e 1540 -c 2 -a 0 -i 11 -k AGT 
- -t 12.691063928 -s 0 -d -1 -p tcp -e 1540 -c 2 -a 0 -i 11 -k AGT
h -t 12.691063928 -s 0 -d -1 -p tcp -e 1540 -c 2 -a 0 -i 11 -k AGT
+ -t 12.691063928 -s 0 -d 14 -p tcp -e 1540 -c 2 -a 0 -i 11 -k RTR 
- -t 12.691063928 -s 0 -d 14 -p tcp -e 1540 -c 2 -a 0 -i 11 -k RTR
h -t 12.691063928 -s 0 -d 14 -p tcp -e 1540 -c 2 -a 0 -i 11 -k RTR
+ -t 12.705010374 -s 14 -d 2 -p tcp -e 1540 -c 2 -a 0 -i 11 -k RTR 
- -t 12.705010374 -s 14 -d 2 -p tcp -e 1540 -c 2 -a 0 -i 11 -k RTR
h -t 12.705010374 -s 14 -d 2 -p tcp -e 1540 -c 2 -a 0 -i 11 -k RTR
r -t 12.706896819 -s 0 -d 0 -p ack -e 40 -c 2 -a 0 -i 9 -k AGT
+ -t 12.720723724 -s 2 -d 4 -p tcp -e 1540 -c 2 -a 0 -i 11 -k RTR 
- -t 12.720723724 -s 2 -d 4 -p tcp -e 1540 -c 2 -a 0 -i 11 -k RTR
h -t 12.720723724 -s 2 -d 4 -p tcp -e 1540 -c 2 -a 0 -i 11 -k RTR
r -t 12.734589422 -s 4 -d 4 -p tcp -e 1540 -c 2 -a 0 -i 10 -k AGT
+ -t 12.734589422 -s 4 -d -1 -p ack -e 40 -c 2 -a 0 -i 12 -k AGT 
- -t 12.734589422 -s 4 -d -1 -p ack -e 40 -c 2 -a 0 -i 12 -k AGT
h -t 12.734589422 -s 4 -d -1 -p ack -e 40 -c 2 -a 0 -i 12 -k AGT
+ -t 12.734589422 -s 4 -d 2 -p ack -e 40 -c 2 -a 0 -i 12 -k RTR 
- -t 12.734589422 -s 4 -d 2 -p ack -e 40 -c 2 -a 0 -i 12 -k RTR
h -t 12.734589422 -s 4 -d 2 -p ack -e 40 -c 2 -a 0 -i 12 -k RTR
r -t 12.748735686 -s 4 -d 4 -p tcp -e 1540 -c 2 -a 0 -i 11 -k AGT
+ -t 12.748735686 -s 4 -d -1 -p ack -e 40 -c 2 -a 0 -i 13 -k AGT 
- -t 12.748735686 -s 4 -d -1 -p ack -e 40 -c 2 -a 0 -i 13 -k AGT
h -t 12.748735686 -s 4 -d -1 -p ack -e 40 -c 2 -a 0 -i 13 -k AGT
+ -t 12.748735686 -s 4 -d 2 -p ack -e 40 -c 2 -a 0 -i 13 -k RTR 
- -t 12.748735686 -s 4 -d 2 -p ack -e 40 -c 2 -a 0 -i 13 -k RTR
h -t 12.748735686 -s 4 -d 2 -p ack -e 40 -c 2 -a 0 -i 13 -k RTR
+ -t 12.750601383 -s 2 -d 14 -p ack -e 40 -c 2 -a 0 -i 12 -k RTR 
- -t 12.750601383 -s 2 -d 14 -p ack -e 40 -c 2 -a 0 -i 12 -k RTR
h -t 12.750601383 -s 2 -d 14 -p ack -e 40 -c 2 -a 0 -i 12 -k RTR
+ -t 12.752827473 -s 14 -d 0 -p ack -e 40 -c 2 -a 0 -i 12 -k RTR 
- -t 12.752827473 -s 14 -d 0 -p ack -e 40 -c 2 -a 0 -i 12 -k RTR
h -t 12.752827473 -s 14 -d 0 -p ack -e 40 -c 2 -a 0 -i 12 -k RTR
r -t 12.754973914 -s 0 -d 0 -p ack -e 40 -c 2 -a 0 -i 12 -k AGT
+ -t 12.754973914 -s 0 -d -1 -p tcp -e 1540 -c 2 -a 0 -i 14 -k AGT 
- -t 12.754973914 -s 0 -d -1 -p tcp -e 1540 -c 2 -a 0 -i 14 -k AGT
h -t 12.754973914 -s 0 -d -1 -p tcp -e 1540 -c 2 -a 0 -i 14 -k AGT
+ -t 12.754973914 -s 0 -d 14 -p tcp -e 1540 -c 2 -a 0 -i 14 -k RTR 
- -t 12.754973914 -s 0 -d 14 -p tcp -e 1540 -c 2 -a 0 -i 14 -k RTR
h -t 12.754973914 -s 0 -d 14 -p tcp -e 1540 -c 2 -a 0 -i 14 -k RTR
+ -t 12.783669979 -s 14 -d 2 -p tcp -e 1540 -c 2 -a 0 -i 14 -k RTR 
- -t 12.783669979 -s 14 -d 2 -p tcp -e 1540 -c 2 -a 0 -i 14 -k RTR
h -t 12.783669979 -s 14 -d 2 -p tcp -e 1540 -c 2 -a 0 -i 14 -k RTR
+ -t 12.797636069 -s 2 -d 4 -p tcp -e 1540 -c 2 -a 0 -i 14 -k RTR 
- -t 12.797636069 -s 2 -d 4 -p tcp -e 1540 -c 2 -a 0 -i 14 -k RTR
h -t 12.797636069 -s 2 -d 4 -p tcp -e 1540 -c 2 -a 0 -i 14 -k RTR
r -t 12.811521766 -s 4 -d 4 -p tcp -e 1540 -c 2 -a 0 -i 14 -k AGT
+ -t 12.811521766 -s 4 -d -1 -p ack -e 40 -c 2 -a 0 -i 15 -k AGT 
- -t 12.811521766 -s 4 -d -1 -p ack -e 40 -c 2 -a 0 -i 15 -k AGT
h -t 12.811521766 -s 4 -d -1 -p ack -e 40 -c 2 -a 0 -i 15 -k AGT
+ -t 12.811521766 -s 4 -d 2 -p ack -e 40 -c 2 -a 0 -i 15 -k RTR 
- -t 12.811521766 -s 4 -d 2 -p ack -e 40 -c 2 -a 0 -i 15 -k RTR
h -t 12.811521766 -s 4 -d 2 -p ack -e 40 -c 2 -a 0 -i 15 -k RTR
+ -t 12.816467463 -s 2 -d 14 -p ack -e 40 -c 2 -a 0 -i 13 -k RTR 
- -t 12.816467463 -s 2 -d 14 -p ack -e 40 -c 2 -a 0 -i 13 -k RTR
h -t 12.816467463 -s 2 -d 14 -p ack -e 40 -c 2 -a 0 -i 13 -k RTR
+ -t 12.818313552 -s 14 -d 0 -p ack -e 40 -c 2 -a 0 -i 13 -k RTR 
- -t 12.818313552 -s 14 -d 0 -p ack -e 40 -c 2 -a 0 -i 13 -k RTR
h -t 12.818313552 -s 14 -d 0 -p ack -e 40 -c 2 -a 0 -i 13 -k RTR
r -t 12.820579987 -s 0 -d 0 -p ack -e 40 -c 2 -a 0 -i 13 -k AGT
+ -t 12.820579987 -s 0 -d -1 -p tcp -e 1540 -c 2 -a 0 -i 16 -k AGT 
- -t 12.820579987 -s 0 -d -1 -p tcp -e 1540 -c 2 -a 0 -i 16 -k AGT
h -t 12.820579987 -s 0 -d -1 -p tcp -e 1540 -c 2 -a 0 -i 16 -k AGT
+ -t 12.820579987 -s 0 -d -1 -p tcp -e 1540 -c 2 -a 0 -i 17 -k AGT 
- -t 12.820579987 -s 0 -d -1 -p tcp -e 1540 -c 2 -a 0 -i 17 -k AGT
h -t 12.820579987 -s 0 -d -1 -p tcp -e 1540 -c 2 -a 0 -i 17 -k AGT
+ -t 12.820579987 -s 0 -d 14 -p tcp -e 1540 -c 2 -a 0 -i 16 -k RTR 
- -t 12.820579987 -s 0 -d 14 -p tcp -e 1540 -c 2 -a 0 -i 16 -k RTR
h -t 12.820579987 -s 0 -d 14 -p tcp -e 1540 -c 2 -a 0 -i 16 -k RTR
+ -t 12.820579987 -s 0 -d 14 -p tcp -e 1540 -c 2 -a 0 -i 17 -k RTR 
- -t 12.820579987 -s 0 -d 14 -p tcp -e 1540 -c 2 -a 0 -i 17 -k RTR
h -t 12.820579987 -s 0 -d 14 -p tcp -e 1540 -c 2 -a 0 -i 17 -k RTR
d -t 12.861670291 -s 4 -d 2 -p ack -e 40 -c 2 -a 0 -i 15 -k RTR
+ -t 12.861670291 -s 4 -d 0 -p AODV -e 32 -c 2 -a 0 -i 0 -k RTR 
- -t 12.861670291 -s 4 -d 0 -p AODV -e 32 -c 2 -a 0 -i 0 -k RTR
h -t 12.861670291 -s 4 -d 0 -p AODV -e 32 -c 2 -a 0 -i 0 -k RTR
r -t 12.863070862 -s 9 -d 0 -p AODV -e 32 -c 2 -a 0 -i 0 -k RTR
r -t 12.863071086 -s 5 -d 0 -p AODV -e 32 -c 2 -a 0 -i 0 -k RTR
+ -t 12.883555282 -s 14 -d 2 -p tcp -e 1540 -c 2 -a 0 -i 16 -k RTR 
- -t 12.883555282 -s 14 -d 2 -p tcp -e 1540 -c 2 -a 0 -i 16 -k RTR
h -t 12.883555282 -s 14 -d 2 -p tcp -e 1540 -c 2 -a 0 -i 16 -k RTR
+ -t 12.897522520 -s 14 -d 2 -p tcp -e 1540 -c 2 -a 0 -i 17 -k RTR 
- -t 12.897522520 -s 14 -d 2 -p tcp -e 1540 -c 2 -a 0 -i 17 -k RTR
h -t 12.897522520 -s 14 -d 2 -p tcp -e 1540 -c 2 -a 0 -i 17 -k RTR
+ -t 12.911728610 -s 2 -d 4 -p tcp -e 1540 -c 2 -a 0 -i 16 -k RTR 
- -t 12.911728610 -s 2 -d 4 -p tcp -e 1540 -c 2 -a 0 -i 16 -k RTR
h -t 12.911728610 -s 2 -d 4 -p tcp -e 1540 -c 2 -a 0 -i 16 -k RTR
+ -t 12.925655396 -s 2 -d 4 -p tcp -e 1540 -c 2 -a 0 -i 17 -k RTR 
- -t 12.925655396 -s 2 -d 4 -p tcp -e 1540 -c 2 -a 0 -i 17 -k RTR
h -t 12.925655396 -s 2 -d 4 -p tcp -e 1540 -c 2 -a 0 -i 17 -k RTR
r -t 12.939901091 -s 4 -d 4 -p tcp -e 1540 -c 2 -a 0 -i 16 -k AGT
+ -t 12.939901091 -s 4 -d -1 -p ack -e 40 -c 2 -a 0 -i 18 -k AGT 
- -t 12.939901091 -s 4 -d -1 -p ack -e 40 -c 2 -a 0 -i 18 -k AGT
h -t 12.939901091 -s 4 -d -1 -p ack -e 40 -c 2 -a 0 -i 18 -k AGT
+ -t 12.939901091 -s 4 -d -1 -p AODV -e 48 -c 2 -a 0 -i 0 -k RTR 
- -t 12.939901091 -s 4 -d -1 -p AODV -e 48 -c 2 -a 0 -i 0 -k RTR
h -t 12.939901091 -s 4 -d -1 -p AODV -e 48 -c 2 -a 0 -i 0 -k RTR
r -t 12.941113656 -s 2 -d -1 -p AODV -e 48 -c 2 -a 0 -i 0 -k RTR
r -t 12.941113663 -s 9 -d -1 -p AODV -e 48 -c 2 -a 0 -i 0 -k RTR
r -t 12.941113885 -s 5 -d -1 -p AODV -e 48 -c 2 -a 0 -i 0 -k RTR
+ -t 12.942631595 -s 2 -d -1 -p AODV -e 48 -c 2 -a 0 -i 0 -k RTR 
- -t 12.942631595 -s 2 -d -1 -p AODV -e 48 -c 2 -a 0 -i 0 -k RTR
h -t 12.942631595 -s 2 -d -1 -p AODV -e 48 -c 2 -a 0 -i 0 -k RTR
+ -t 12.946516203 -s 5 -d -1 -p AODV -e 48 -c 2 -a 0 -i 0 -k RTR 
- -t 12.946516203 -s 5 -d -1 -p AODV -e 48 -c 2 -a 0 -i 0 -k RTR
h -t 12.946516203 -s 5 -d -1 -p AODV -e 48 -c 2 -a 0 -i 0 -k RTR
+ -t 12.950563904 -s 9 -d -1 -p AODV -e 48 -c 2 -a 0 -i 0 -k RTR 
- -t 12.950563904 -s 9 -d -1 -p AODV -e 48 -c 2 -a 0 -i 0 -k RTR
h -t 12.950563904 -s 9 -d -1 -p AODV -e 48 -c 2 -a 0 -i 0 -k RTR
r -t 12.955005351 -s 4 -d 4 -p tcp -e 1540 -c 2 -a 0 -i 17 -k AGT
+ -t 12.955005351 -s 4 -d -1 -p ack -e 40 -c 2 -a 0 -i 19 -k AGT 
- -t 12.955005351 -s 4 -d -1 -p ack -e 40 -c 2 -a 0 -i 19 -k AGT
h -t 12.955005351 -s 4 -d -1 -p ack -e 40 -c 2 -a 0 -i 19 -k AGT
r -t 12.956428264 -s 5 -d -1 -p AODV -e 48 -c 2 -a 0 -i 0 -k RTR
r -t 12.956428301 -s 4 -d -1 -p AODV -e 48 -c 2 -a 0 -i 0 -k RTR
r -t 12.957486799 -s 9 -d -1 -p AODV -e 48 -c 2 -a 0 -i 0 -k RTR
r -t 12.957487058 -s 4 -d -1 -p AODV -e 48 -c 2 -a 0 -i 0 -k RTR
r -t 12.957487061 -s 2 -d -1 -p AODV -e 48 -c 2 -a 0 -i 0 -k RTR
r -t 12.958685626 -s 4 -d -1 -p AODV -e 48 -c 2 -a 0 -i 0 -k RTR
r -t 12.958685758 -s 14 -d -1 -p AODV -e 48 -c 2 -a 0 -i 0 -k RTR
r -t 12.958685786 -s 6 -d -1 -p AODV -e 48 -c 2 -a 0 -i 0 -k RTR
r -t 12.958685859 -s 5 -d -1 -p AODV -e 48 -c 2 -a 0 -i 0 -k RTR
+ -t 12.961314366 -s 14 -d -1 -p AODV -e 48 -c 2 -a 0 -i 0 -k RTR 
- -t 12.961314366 -s 14 -d -1 -p AODV -e 48 -c 2 -a 0 -i 0 -k RTR
h -t 12.961314366 -s 14 -d -1 -p AODV -e 48 -c 2 -a 0 -i 0 -k RTR
r -t 12.962742930 -s 6 -d -1 -p AODV -e 48 -c 2 -a 0 -i 0 -k RTR
r -t 12.962743063 -s 2 -d -1 -p AODV -e 48 -c 2 -a 0 -i 0 -k RTR
r -t 12.962743174 -s 0 -d -1 -p AODV -e 48 -c 2 -a 0 -i 0 -k RTR
+ -t 12.962743174 -s 0 -d 14 -p AODV -e 44 -c 2 -a 0 -i 0 -k RTR 
- -t 12.962743174 -s 0 -d 14 -p AODV -e 44 -c 2 -a 0 -i 0 -k RTR
h -t 12.962743174 -s 0 -d 14 -p AODV -e 44 -c 2 -a 0 -i 0 -k RTR
+ -t 12.963480947 -s 6 -d -1 -p AODV -e 48 -c 2 -a 0 -i 0 -k RTR 
- -t 12.963480947 -s 6 -d -1 -p AODV -e 48 -c 2 -a 0 -i 0 -k RTR
h -t 12.963480947 -s 6 -d -1 -p AODV -e 48 -c 2 -a 0 -i 0 -k RTR
+ -t 12.964337596 -s 14 -d 2 -p AODV -e 44 -c 2 -a 0 -i 0 -k RTR 
- -t 12.964337596 -s 14 -d 2 -p AODV -e 44 -c 2 -a 0 -i 0 -k RTR
h -t 12.964337596 -s 14 -d 2 -p AODV -e 44 -c 2 -a 0 -i 0 -k RTR
r -t 12.965680384 -s 13 -d -1 -p AODV -e 48 -c 2 -a 0 -i 0 -k RTR
r -t 12.965680560 -s 14 -d -1 -p AODV -e 48 -c 2 -a 0 -i 0 -k RTR
r -t 12.965680721 -s 2 -d -1 -p AODV -e 48 -c 2 -a 0 -i 0 -k RTR
r -t 12.965680759 -s 11 -d -1 -p AODV -e 48 -c 2 -a 0 -i 0 -k RTR
+ -t 12.967424650 -s 2 -d 4 -p AODV -e 44 -c 2 -a 0 -i 0 -k RTR 
- -t 12.967424650 -s 2 -d 4 -p AODV -e 44 -c 2 -a 0 -i 0 -k RTR
h -t 12.967424650 -s 2 -d 4 -p AODV -e 44 -c 2 -a 0 -i 0 -k RTR
+ -t 12.969466757 -s 13 -d -1 -p AODV -e 48 -c 2 -a 0 -i 0 -k RTR 
- -t 12.969466757 -s 13 -d -1 -p AODV -e 48 -c 2 -a 0 -i 0 -k RTR
h -t 12.969466757 -s 13 -d -1 -p AODV -e 48 -c 2 -a 0 -i 0 -k RTR
+ -t 12.969762344 -s 4 -d 2 -p ack -e 40 -c 2 -a 0 -i 18 -k RTR 
- -t 12.969762344 -s 4 -d 2 -p ack -e 40 -c 2 -a 0 -i 18 -k RTR
h -t 12.969762344 -s 4 -d 2 -p ack -e 40 -c 2 -a 0 -i 18 -k RTR
+ -t 12.971798041 -s 11 -d -1 -p AODV -e 48 -c 2 -a 0 -i 0 -k RTR 
- -t 12.971798041 -s 11 -d -1 -p AODV -e 48 -c 2 -a 0 -i 0 -k RTR
h -t 12.971798041 -s 11 -d -1 -p AODV -e 48 -c 2 -a 0 -i 0 -k RTR
+ -t 12.972088039 -s 2 -d 14 -p ack -e 40 -c 2 -a 0 -i 18 -k RTR 
- -t 12.972088039 -s 2 -d 14 -p ack -e 40 -c 2 -a 0 -i 18 -k RTR
h -t 12.972088039 -s 2 -d 14 -p ack -e 40 -c 2 -a 0 -i 18 -k RTR
+ -t 12.973914128 -s 14 -d 0 -p ack -e 40 -c 2 -a 0 -i 18 -k RTR 
- -t 12.973914128 -s 14 -d 0 -p ack -e 40 -c 2 -a 0 -i 18 -k RTR
h -t 12.973914128 -s 14 -d 0 -p ack -e 40 -c 2 -a 0 -i 18 -k RTR
r -t 12.976060549 -s 0 -d 0 -p ack -e 40 -c 2 -a 0 -i 18 -k AGT
+ -t 12.976060549 -s 0 -d -1 -p tcp -e 1540 -c 2 -a 0 -i 20 -k AGT 
- -t 12.976060549 -s 0 -d -1 -p tcp -e 1540 -c 2 -a 0 -i 20 -k AGT
h -t 12.976060549 -s 0 -d -1 -p tcp -e 1540 -c 2 -a 0 -i 20 -k AGT
+ -t 12.976060549 -s 0 -d -1 -p tcp -e 1540 -c 2 -a 0 -i 21 -k AGT 
- -t 12.976060549 -s 0 -d -1 -p tcp -e 1540 -c 2 -a 0 -i 21 -k AGT
h -t 12.976060549 -s 0 -d -1 -p tcp -e 1540 -c 2 -a 0 -i 21 -k AGT
+ -t 12.976060549 -s 0 -d 14 -p tcp -e 1540 -c 2 -a 0 -i 20 -k RTR 
- -t 12.976060549 -s 0 -d 14 -p tcp -e 1540 -c 2 -a 0 -i 20 -k RTR
h -t 12.976060549 -s 0 -d 14 -p tcp -e 1540 -c 2 -a 0 -i 20 -k RTR
+ -t 12.976060549 -s 0 -d 14 -p tcp -e 1540 -c 2 -a 0 -i 21 -k RTR 
- -t 12.976060549 -s 0 -d 14 -p tcp -e 1540 -c 2 -a 0 -i 21 -k RTR
h -t 12.976060549 -s 0 -d 14 -p tcp -e 1540 -c 2 -a 0 -i 21 -k RTR
+ -t 12.979762344 -s 4 -d 2 -p ack -e 40 -c 2 -a 0 -i 19 -k RTR 
- -t 12.979762344 -s 4 -d 2 -p ack -e 40 -c 2 -a 0 -i 19 -k RTR
h -t 12.979762344 -s 4 -d 2 -p ack -e 40 -c 2 -a 0 -i 19 -k RTR
r -t 13.005499587 -s 11 -d -1 -p AODV -e 48 -c 2 -a 0 -i 0 -k RTR
r -t 13.005499601 -s 6 -d -1 -p AODV -e 48 -c 2 -a 0 -i 0 -k RTR
r -t 13.006597962 -s 13 -d -1 -p AODV -e 48 -c 2 -a 0 -i 0 -k RTR
r -t 13.006598236 -s 1 -d -1 -p AODV -e 48 -c 2 -a 0 -i 0 -k RTR
r -t 13.006598349 -s 6 -d -1 -p AODV -e 48 -c 2 -a 0 -i 0 -k RTR
+ -t 13.014657168 -s 1 -d -1 -p AODV -e 48 -c 2 -a 0 -i 0 -k RTR 
- -t 13.014657168 -s 1 -d -1 -p AODV -e 48 -c 2 -a 0 -i 0 -k RTR
h -t 13.014657168 -s 1 -d -1 -p AODV -e 48 -c 2 -a 0 -i 0 -k RTR
r -t 13.015825592 -s 10 -d -1 -p AODV -e 48 -c 2 -a 0 -i 0 -k RTR
d -t 13.015825592 -s 10 -d -1 -p AODV -e 48 -c 2 -a 0 -i 0 -k RTR
d -t 13.020865958 -s 4 -d 2 -p ack -e 40 -c 2 -a 0 -i 19 -k RTR
+ -t 13.020865958 -s 4 -d 0 -p AODV -e 32 -c 2 -a 0 -i 0 -k RTR 
- -t 13.020865958 -s 4 -d 0 -p AODV -e 32 -c 2 -a 0 -i 0 -k RTR
h -t 13.020865958 -s 4 -d 0 -p AODV -e 32 -c 2 -a 0 -i 0 -k RTR
r -t 13.021726532 -s 9 -d 0 -p AODV -e 32 -c 2 -a 0 -i 0 -k RTR
r -t 13.021726752 -s 5 -d 0 -p AODV -e 32 -c 2 -a 0 -i 0 -k RTR
+ -t 13.035525361 -s 14 -d 2 -p tcp -e 1540 -c 2 -a 0 -i 20 -k RTR 
- -t 13.035525361 -s 14 -d 2 -p tcp -e 1540 -c 2 -a 0 -i 20 -k RTR
h -t 13.035525361 -s 14 -d 2 -p tcp -e 1540 -c 2 -a 0 -i 20 -k RTR
+ -t 13.049411450 -s 2 -d 4 -p tcp -e 1540 -c 2 -a 0 -i 20 -k RTR 
- -t 13.049411450 -s 2 -d 4 -p tcp -e 1540 -c 2 -a 0 -i 20 -k RTR
h -t 13.049411450 -s 2 -d 4 -p tcp -e 1540 -c 2 -a 0 -i 20 -k RTR
r -t 13.063557144 -s 4 -d 4 -p tcp -e 1540 -c 2 -a 0 -i 20 -k AGT
+ -t 13.063557144 -s 4 -d -1 -p ack -e 40 -c 2 -a 0 -i 22 -k AGT 
- -t 13.063557144 -s 4 -d -1 -p ack -e 40 -c 2 -a 0 -i 22 -k AGT
h -t 13.063557144 -s 4 -d -1 -p ack -e 40 -c 2 -a 0 -i 22 -k AGT
+ -t 13.063557144 -s 4 -d -1 -p AODV -e 48 -c 2 -a 0 -i 0 -k RTR 
- -t 13.063557144 -s 4 -d -1 -p AODV -e 48 -c 2 -a 0 -i 0 -k RTR
h -t 13.063557144 -s 4 -d -1 -p AODV -e 48 -c 2 -a 0 -i 0 -k RTR
r -t 13.064809708 -s 2 -d -1 -p AODV -e 48 -c 2 -a 0 -i 0 -k RTR
r -t 13.064809719 -s 9 -d -1 -p AODV -e 48 -c 2 -a 0 -i 0 -k RTR
r -t 13.064809937 -s 5 -d -1 -p AODV -e 48 -c 2 -a 0 -i 0 -k RTR
+ -t 13.064889284 -s 5 -d -1 -p AODV -e 48 -c 2 -a 0 -i 0 -k RTR 
- -t 13.064889284 -s 5 -d -1 -p AODV -e 48 -c 2 -a 0 -i 0 -k RTR
h -t 13.064889284 -s 5 -d -1 -p AODV -e 48 -c 2 -a 0 -i 0 -k RTR
r -t 13.066177817 -s 9 -d -1 -p AODV -e 48 -c 2 -a 0 -i 0 -k RTR