M 1.00000 0 (22.00, 11.00, 0.00), (406.00, 986.00), 8.00
M 1.00000 1 (740.00, 262.00, 0.00), (342.00, 901.00), 1.00
M 1.00000 2 (288.00, 529.00, 0.00), (317.00, 444.00), 5.00
M 1.00000 3 (121.00, 944.00, 0.00), (212.00, 646.00), 2.00
M 1.00000 4 (378.00, 700.00, 0.00), (111.00, 256.00), 6.00
M 1.00000 5 (575.00, 529.00, 0.00), (78.00, 269.00), 3.00
M 1.00000 6 (436.00, 176.00, 0.00), (150.00, 633.00), 9.00
M 1.00000 7 (1005.00, 724.00, 0.00), (713.00, 462.00), 7.00
M 1.00000 8 (547.00, 995.00, 0.00), (917.00, 972.00), 7.00
M 1.00000 9 (454.00, 747.00, 0.00), (694.00, 415.00), 8.00
M 1.00000 10 (939.00, 263.00, 0.00), (134.00, 811.00), 9.00
M 1.00000 11 (670.00, 99.00, 0.00), (196.00, 390.00), 9.00
M 1.00000 12 (38.00, 714.00, 0.00), (427.00, 626.00), 2.00
M 1.00000 13 (356.00, 195.00, 0.00), (969.00, 235.00), 10.00
M 1.00000 14 (129.00, 374.00, 0.00), (475.00, 7.00), 10.00
s 1.000000000 _0_ AGT  --- 0 tcp 40 [0 0 0 0] ------- [0:0 4:0 32 0] [0 0] 0 0
r 1.000000000 _0_ RTR  --- 0 tcp 40 [0 0 0 0] ------- [0:0 4:0 32 0] [0 0] 0 0
s 1.000000000 _0_ RTR  --- 0 AODV 48 [0 0 0 0] ------- [0:255 -1:255 30 0] [0x2 1 1 [4 0] [0 4]] (REQUEST)
s 3.000000000 _0_ RTR  --- 0 AODV 48 [0 0 0 0] ------- [0:255 -1:255 30 0] [0x2 1 2 [4 0] [0 6]] (REQUEST)
s 4.000000000 _0_ AGT  --- 1 tcp 40 [0 0 0 0] ------- [0:0 4:0 32 0] [0 0] 0 0
r 4.000000000 _0_ RTR  --- 1 tcp 40 [0 0 0 0] ------- [0:0 4:0 32 0] [0 0] 0 0
s 7.000000000 _0_ RTR  --- 0 AODV 48 [0 0 0 0] ------- [0:255 -1:255 30 0] [0x2 1 3 [4 0] [0 8]] (REQUEST)
s 10.000000000 _0_ AGT  --- 2 tcp 40 [0 0 0 0] ------- [0:0 4:0 32 0] [0 0] 0 0
r 10.000000000 _0_ RTR  --- 2 tcp 40 [0 0 0 0] ------- [0:0 4:0 32 0] [0 0] 0 0
s 12.500000000 _0_ RTR  --- 0 AODV 48 [0 0 0 0] ------- [0:255 -1:255 30 0] [0x2 1 4 [4 0] [0 10]] (REQUEST)
r 12.501148821 _14_ RTR  --- 0 AODV 48 [0 ffffffff 0 800] ------- [0:255 -1:255 30 0] [0x2 1 4 [4 0] [0 10]] (REQUEST)
s 12.507537473 _14_ RTR  --- 0 AODV 48 [0 ffffffff 0 800] ------- [14:255 -1:255 29 0] [0x2 2 4 [4 0] [0 10]] (REQUEST)
r 12.508746056 _6_ RTR  --- 0 AODV 48 [0 ffffffff e 800] ------- [14:255 -1:255 29 0] [0x2 2 4 [4 0] [0 10]] (REQUEST)
r 12.508746169 _2_ RTR  --- 0 AODV 48 [0 ffffffff e 800] ------- [14:255 -1:255 29 0] [0x2 2 4 [4 0] [0 10]] (REQUEST)
r 12.508746293 _0_ RTR  --- 0 AODV 48 [0 ffffffff e 800] ------- [14:255 -1:255 29 0] [0x2 2 4 [4 0] [0 10]] (REQUEST)
s 12.509174115 _2_ RTR  --- 0 AODV 48 [0 ffffffff e 800] ------- [2:255 -1:255 28 0] [0x2 3 4 [4 0] [0 10]] (REQUEST)
r 12.510282682 _4_ RTR  --- 0 AODV 48 [0 ffffffff 2 800] ------- [2:255 -1:255 28 0] [0x2 3 4 [4 0] [0 10]] (REQUEST)
s 12.510282682 _4_ RTR  --- 0 AODV 44 [0 0 0 0] ------- [4:255 0:255 30 2] [0x4 1 [4 4] 10.000000] (REPLY)
r 12.510282812 _14_ RTR  --- 0 AODV 48 [0 ffffffff 2 800] ------- [2:255 -1:255 28 0] [0x2 3 4 [4 0] [0 10]] (REQUEST)
r 12.510282860 _6_ RTR  --- 0 AODV 48 [0 ffffffff 2 800] ------- [2:255 -1:255 28 0] [0x2 3 4 [4 0] [0 10]] (REQUEST)
r 12.510282918 _5_ RTR  --- 0 AODV 48 [0 ffffffff 2 800] ------- [2:255 -1:255 28 0] [0x2 3 4 [4 0] [0 10]] (REQUEST)
s 12.510387510 _6_ RTR  --- 0 AODV 48 [0 ffffffff e 800] ------- [6:255 -1:255 28 0] [0x2 3 4 [4 0] [0 10]] (REQUEST)
r 12.514824651 _2_ RTR  --- 0 AODV 44 [13a 2 4 800] ------- [4:255 0:255 30 2] [0x4 1 [4 4] 10.000000] (REPLY)
f 12.514824651 _2_ RTR  --- 0 AODV 44 [13a 2 4 800] ------- [4:255 0:255 29 14] [0x4 2 [4 4] 10.000000] (REPLY)
s 12.518880195 _5_ RTR  --- 0 AODV 48 [0 ffffffff 2 800] ------- [5:255 -1:255 27 0] [0x2 4 4 [4 0] [0 10]] (REQUEST)
r 12.519556528 _14_ RTR  --- 0 AODV 44 [13a e 2 800] ------- [4:255 0:255 29 14] [0x4 2 [4 4] 10.000000] (REPLY)
f 12.519556528 _14_ RTR  --- 0 AODV 44 [13a e 2 800] ------- [4:255 0:255 28 0] [0x4 3 [4 4] 10.000000] (REPLY)
r 12.521667474 _13_ RTR  --- 0 AODV 48 [0 ffffffff 6 800] ------- [6:255 -1:255 28 0] [0x2 3 4 [4 0] [0 10]] (REQUEST)
r 12.521667694 _14_ RTR  --- 0 AODV 48 [0 ffffffff 6 800] ------- [6:255 -1:255 28 0] [0x2 3 4 [4 0] [0 10]] (REQUEST)
r 12.521667855 _2_ RTR  --- 0 AODV 48 [0 ffffffff 6 800] ------- [6:255 -1:255 28 0] [0x2 3 4 [4 0] [0 10]] (REQUEST)
r 12.521667875 _11_ RTR  --- 0 AODV 48 [0 ffffffff 6 800] ------- [6:255 -1:255 28 0] [0x2 3 4 [4 0] [0 10]] (REQUEST)
r 12.523370649 _9_ RTR  --- 0 AODV 48 [0 ffffffff 5 800] ------- [5:255 -1:255 27 0] [0x2 4 4 [4 0] [0 10]] (REQUEST)
r 12.523370901 _4_ RTR  --- 0 AODV 48 [0 ffffffff 5 800] ------- [5:255 -1:255 27 0] [0x2 4 4 [4 0] [0 10]] (REQUEST)
s 12.524079730 _13_ RTR  --- 0 AODV 48 [0 ffffffff 6 800] ------- [13:255 -1:255 27 0] [0x2 4 4 [4 0] [0 10]] (REQUEST)
r 12.527747252 _0_ RTR  --- 0 AODV 44 [13a 0 e 800] ------- [4:255 0:255 28 0] [0x4 3 [4 4] 10.000000] (REPLY)
s 12.527747252 _0_ RTR  --- 0 tcp 40 [0 0 0 0] ------- [0:0 4:0 30 14] [0 0] 0 0
r 12.529673713 _14_ RTR  --- 0 tcp 40 [13a e 0 800] ------- [0:0 4:0 30 14] [0 0] 1 0
f 12.529673713 _14_ RTR  --- 0 tcp 40 [13a e 0 800] ------- [0:0 4:0 29 2] [0 0] 1 0
s 12.530178940 _11_ RTR  --- 0 AODV 48 [0 ffffffff 6 800] ------- [11:255 -1:255 27 0] [0x2 4 4 [4 0] [0 10]] (REQUEST)
r 12.531271000 _6_ RTR  --- 0 AODV 48 [0 ffffffff d 800] ------- [13:255 -1:255 27 0] [0x2 4 4 [4 0] [0 10]] (REQUEST)
r 12.531271040 _11_ RTR  --- 0 AODV 48 [0 ffffffff d 800] ------- [13:255 -1:255 27 0] [0x2 4 4 [4 0] [0 10]] (REQUEST)
r 12.532349443 _13_ RTR  --- 0 AODV 48 [0 ffffffff b 800] ------- [11:255 -1:255 27 0] [0x2 4 4 [4 0] [0 10]] (REQUEST)
r 12.532349683 _1_ RTR  --- 0 AODV 48 [0 ffffffff b 800] ------- [11:255 -1:255 27 0] [0x2 4 4 [4 0] [0 10]] (REQUEST)
r 12.532349804 _6_ RTR  --- 0 AODV 48 [0 ffffffff b 800] ------- [11:255 -1:255 27 0] [0x2 4 4 [4 0] [0 10]] (REQUEST)
s 12.532420103 _9_ RTR  --- 0 AODV 48 [0 ffffffff 5 800] ------- [9:255 -1:255 26 0] [0x2 5 4 [4 0] [0 10]] (REQUEST)
s 12.532457767 _1_ RTR  --- 0 AODV 48 [0 ffffffff b 800] ------- [1:255 -1:255 26 0] [0x2 5 4 [4 0] [0 10]] (REQUEST)
r 12.534286456 _2_ RTR  --- 0 tcp 40 [13a 2 e 800] ------- [0:0 4:0 29 2] [0 0] 2 0
f 12.534286456 _2_ RTR  --- 0 tcp 40 [13a 2 e 800] ------- [0:0 4:0 28 4] [0 0] 2 0
r 12.536392156 _4_ AGT  --- 0 tcp 40 [13a 4 2 800] ------- [0:0 4:0 28 4] [0 0] 3 0
s 12.536392156 _4_ AGT  --- 3 ack 40 [0 0 0 0] ------- [4:0 0:0 32 0] [0 0] 0 0
r 12.536392156 _4_ RTR  --- 3 ack 40 [0 0 0 0] ------- [4:0 0:0 32 0] [0 0] 0 0
s 12.536392156 _4_ RTR  --- 3 ack 40 [0 0 0 0] ------- [4:0 0:0 30 2] [0 0] 0 0
s 12.537747252 _0_ RTR  --- 1 tcp 40 [0 0 0 0] ------- [0:0 4:0 30 14] [0 0] 0 0
r 12.538497857 _2_ RTR  --- 3 ack 40 [13a 2 4 800] ------- [4:0 0:0 30 2] [0 0] 1 0
f 12.538497857 _2_ RTR  --- 3 ack 40 [13a 2 4 800] ------- [4:0 0:0 29 14] [0 0] 1 0
r 12.540567835 _14_ RTR  --- 3 ack 40 [13a e 2 800] ------- [4:0 0:0 29 14] [0 0] 2 0
f 12.540567835 _14_ RTR  --- 3 ack 40 [13a e 2 800] ------- [4:0 0:0 28 0] [0 0] 2 0
r 12.542554295 _0_ AGT  --- 3 ack 40 [13a 0 e 800] ------- [4:0 0:0 28 0] [0 0] 3 0
s 12.542554295 _0_ AGT  --- 4 tcp 1540 [0 0 0 0] ------- [0:0 4:0 32 0] [1 0] 0 0
r 12.542554295 _0_ RTR  --- 4 tcp 1540 [0 0 0 0] ------- [0:0 4:0 32 0] [1 0] 0 0
s 12.542554295 _0_ RTR  --- 4 tcp 1540 [0 0 0 0] ------- [0:0 4:0 30 14] [1 0] 0 0
r 12.543877638 _5_ RTR  --- 0 AODV 48 [0 ffffffff 9 800] ------- [9:255 -1:255 26 0] [0x2 5 4 [4 0] [0 10]] (REQUEST)
r 12.543877657 _4_ RTR  --- 0 AODV 48 [0 ffffffff 9 800] ------- [9:255 -1:255 26 0] [0x2 5 4 [4 0] [0 10]] (REQUEST)
r 12.545321057 _10_ RTR  --- 0 AODV 48 [0 ffffffff 1 800] ------- [1:255 -1:255 26 0] [0x2 5 4 [4 0] [0 10]] (REQUEST)
r 12.545321270 _11_ RTR  --- 0 AODV 48 [0 ffffffff 1 800] ------- [1:255 -1:255 26 0] [0x2 5 4 [4 0] [0 10]] (REQUEST)
r 12.547020754 _14_ RTR  --- 1 tcp 40 [13a e 0 800] ------- [0:0 4:0 30 14] [0 0] 1 0
f 12.547020754 _14_ RTR  --- 1 tcp 40 [13a e 0 800] ------- [0:0 4:0 29 2] [0 0] 1 0
s 12.547747252 _0_ RTR  --- 2 tcp 40 [0 0 0 0] ------- [0:0 4:0 30 14] [0 0] 0 0
s 12.554789219 _10_ RTR  --- 0 AODV 48 [0 ffffffff 1 800] ------- [10:255 -1:255 25 0] [0x2 6 4 [4 0] [0 10]] (REQUEST)
r 12.556217649 _1_ RTR  --- 0 AODV 48 [0 ffffffff a 800] ------- [10:255 -1:255 25 0] [0x2 6 4 [4 0] [0 10]] (REQUEST)
r 12.560868033 _14_ RTR  --- 4 tcp 1540 [13a e 0 800] ------- [0:0 4:0 30 14] [1 0] 1 0
f 12.560868033 _14_ RTR  --- 4 tcp 1540 [13a e 0 800] ------- [0:0 4:0 29 2] [1 0] 1 0
r 12.562815310 _14_ RTR  --- 2 tcp 40 [13a e 0 800] ------- [0:0 4:0 30 14] [0 0] 1 0
f 12.562815310 _14_ RTR  --- 2 tcp 40 [13a e 0 800] ------- [0:0 4:0 29 2] [0 0] 1 0
r 12.564781400 _2_ RTR  --- 1 tcp 40 [13a 2 e 800] ------- [0:0 4:0 29 2] [0 0] 2 0
f 12.564781400 _2_ RTR  --- 1 tcp 40 [13a 2 e 800] ------- [0:0 4:0 28 4] [0 0] 2 0
r 12.566647100 _4_ AGT  --- 1 tcp 40 [13a 4 2 800] ------- [0:0 4:0 28 4] [0 0] 3 0
s 12.566647100 _4_ AGT  --- 5 ack 40 [0 0 0 0] ------- [4:0 0:0 32 0] [0 0] 0 0
r 12.566647100 _4_ RTR  --- 5 ack 40 [0 0 0 0] ------- [4:0 0:0 32 0] [0 0] 0 0
s 12.566647100 _4_ RTR  --- 5 ack 40 [0 0 0 0] ------- [4:0 0:0 30 2] [0 0] 0 0
r 12.568592800 _2_ RTR  --- 5 ack 40 [13a 2 4 800] ------- [4:0 0:0 30 2] [0 0] 1 0
f 12.568592800 _2_ RTR  --- 5 ack 40 [13a 2 4 800] ------- [4:0 0:0 29 14] [0 0] 1 0
r 12.570518890 _14_ RTR  --- 5 ack 40 [13a e 2 800] ------- [4:0 0:0 29 14] [0 0] 2 0
f 12.570518890 _14_ RTR  --- 5 ack 40 [13a e 2 800] ------- [4:0 0:0 28 0] [0 0] 2 0
r 12.584744980 _2_ RTR  --- 4 tcp 1540 [13a 2 e 800] ------- [0:0 4:0 29 2] [1 0] 2 0
f 12.584744980 _2_ RTR  --- 4 tcp 1540 [13a 2 e 800] ------- [0:0 4:0 28 4] [1 0] 2 0
r 12.586771767 _2_ RTR  --- 2 tcp 40 [13a 2 e 800] ------- [0:0 4:0 29 2] [0 0] 2 0
f 12.586771767 _2_ RTR  --- 2 tcp 40 [13a 2 e 800] ------- [0:0 4:0 28 4] [0 0] 2 0
r 12.600657467 _4_ AGT  --- 4 tcp 1540 [13a 4 2 800] ------- [0:0 4:0 28 4] [1 0] 3 0
s 12.600657467 _4_ AGT  --- 6 ack 40 [0 0 0 0] ------- [4:0 0:0 32 0] [1 0] 0 0
r 12.600657467 _4_ RTR  --- 6 ack 40 [0 0 0 0] ------- [4:0 0:0 32 0] [1 0] 0 0
s 12.600657467 _4_ RTR  --- 6 ack 40 [0 0 0 0] ------- [4:0 0:0 30 2] [1 0] 0 0
r 12.602823167 _2_ RTR  --- 6 ack 40 [13a 2 4 800] ------- [4:0 0:0 30 2] [1 0] 1 0
f 12.602823167 _2_ RTR  --- 6 ack 40 [13a 2 4 800] ------- [4:0 0:0 29 14] [1 0] 1 0
r 12.604720305 _0_ AGT  --- 5 ack 40 [13a 0 e 800] ------- [4:0 0:0 28 0] [0 0] 3 0
s 12.604720305 _0_ AGT  --- 7 tcp 1540 [0 0 0 0] ------- [0:0 4:0 32 0] [2 0] 0 0
r 12.604720305 _0_ RTR  --- 7 tcp 1540 [0 0 0 0] ------- [0:0 4:0 32 0] [2 0] 0 0
s 12.604720305 _0_ RTR  --- 7 tcp 1540 [0 0 0 0] ------- [0:0 4:0 30 14] [2 0] 0 0
r 12.618606759 _14_ RTR  --- 7 tcp 1540 [13a e 0 800] ------- [0:0 4:0 30 14] [2 0] 1 0
f 12.618606759 _14_ RTR  --- 7 tcp 1540 [13a e 0 800] ------- [0:0 4:0 29 2] [2 0] 1 0
r 12.620703149 _4_ AGT  --- 2 tcp 40 [13a 4 2 800] ------- [0:0 4:0 28 4] [0 0] 3 0
s 12.620703149 _4_ AGT  --- 8 ack 40 [0 0 0 0] ------- [4:0 0:0 32 0] [1 0] 0 0
r 12.620703149 _4_ RTR  --- 8 ack 40 [0 0 0 0] ------- [4:0 0:0 32 0] [1 0] 0 0
s 12.620703149 _4_ RTR  --- 8 ack 40 [0 0 0 0] ------- [4:0 0:0 30 2] [1 0] 0 0
r 12.622969805 _14_ RTR  --- 6 ack 40 [13a e 2 800] ------- [4:0 0:0 29 14] [1 0] 2 0
f 12.622969805 _14_ RTR  --- 6 ack 40 [13a e 2 800] ------- [4:0 0:0 28 0] [1 0] 2 0
r 12.637015895 _2_ RTR  --- 7 tcp 1540 [13a 2 e 800] ------- [0:0 4:0 29 2] [2 0] 2 0
f 12.637015895 _2_ RTR  --- 7 tcp 1540 [13a 2 e 800] ------- [0:0 4:0 28 4] [2 0] 2 0
r 12.639052149 _2_ RTR  --- 8 ack 40 [13a 2 4 800] ------- [4:0 0:0 30 2] [1 0] 1 0
f 12.639052149 _2_ RTR  --- 8 ack 40 [13a 2 4 800] ------- [4:0 0:0 29 14] [1 0] 1 0
r 12.653017848 _4_ AGT  --- 7 tcp 1540 [13a 4 2 800] ------- [0:0 4:0 28 4] [2 0] 3 0
s 12.653017848 _4_ AGT  --- 9 ack 40 [0 0 0 0] ------- [4:0 0:0 32 0] [2 0] 0 0
r 12.653017848 _4_ RTR  --- 9 ack 40 [0 0 0 0] ------- [4:0 0:0 32 0] [2 0] 0 0
s 12.653017848 _4_ RTR  --- 9 ack 40 [0 0 0 0] ------- [4:0 0:0 30 2] [2 0] 0 0
r 12.655023547 _2_ RTR  --- 9 ack 40 [13a 2 4 800] ------- [4:0 0:0 30 2] [2 0] 1 0
f 12.655023547 _2_ RTR  --- 9 ack 40 [13a 2 4 800] ------- [4:0 0:0 29 14] [2 0] 1 0
r 12.656920681 _0_ AGT  --- 6 ack 40 [13a 0 e 800] ------- [4:0 0:0 28 0] [1 0] 3 0
s 12.656920681 _0_ AGT  --- 10 tcp 1540 [0 0 0 0] ------- [0:0 4:0 32 0] [3 0] 0 0
r 12.656920681 _0_ RTR  --- 10 tcp 1540 [0 0 0 0] ------- [0:0 4:0 32 0] [3 0] 0 0
s 12.656920681 _0_ RTR  --- 10 tcp 1540 [0 0 0 0] ------- [0:0 4:0 30 14] [3 0] 0 0
r 12.670787130 _14_ RTR  --- 10 tcp 1540 [13a e 0 800] ------- [0:0 4:0 30 14] [3 0] 1 0
f 12.670787130 _14_ RTR  --- 10 tcp 1540 [13a e 0 800] ------- [0:0 4:0 29 2] [3 0] 1 0
r 12.672743910 _14_ RTR  --- 8 ack 40 [13a e 2 800] ------- [4:0 0:0 29 14] [1 0] 2 0
f 12.672743910 _14_ RTR  --- 8 ack 40 [13a e 2 800] ------- [4:0 0:0 28 0] [1 0] 2 0
r 12.674750696 _14_ RTR  --- 9 ack 40 [13a e 2 800] ------- [4:0 0:0 29 14] [2 0] 2 0
f 12.674750696 _14_ RTR  --- 9 ack 40 [13a e 2 800] ------- [4:0 0:0 28 0] [2 0] 2 0
r 12.688836786 _2_ RTR  --- 10 tcp 1540 [13a 2 e 800] ------- [0:0 4:0 29 2] [3 0] 2 0
f 12.688836786 _2_ RTR  --- 10 tcp 1540 [13a 2 e 800] ------- [0:0 4:0 28 4] [3 0] 2 0
r 12.691063928 _0_ AGT  --- 8 ack 40 [13a 0 e 800] ------- [4:0 0:0 28 0] [1 0] 3 0
s 12.691063928 _0_ AGT  --- 11 tcp 1540 [0 0 0 0] ------- [0:0 4:0 32 0] [4 0] 0 0
r 12.691063928 _0_ RTR  --- 11 tcp 1540 [0 0 0 0] ------- [0:0 4:0 32 0] [4 0] 0 0
s 12.691063928 _0_ RTR  --- 11 tcp 1540 [0 0 0 0] ------- [0:0 4:0 30 14] [4 0] 0 0
r 12.705010374 _14_ RTR  --- 11 tcp 1540 [13a e 0 800] ------- [0:0 4:0 30 14] [4 0] 1 0
f 12.705010374 _14_ RTR  --- 11 tcp 1540 [13a e 0 800] ------- [0:0 4:0 29 2] [4 0] 1 0
r 12.706896819 _0_ AGT  --- 9 ack 40 [13a 0 e 800] ------- [4:0 0:0 28 0] [2 0] 3 0
r 12.720723724 _2_ RTR  --- 11 tcp 1540 [13a 2 e 800] ------- [0:0 4:0 29 2] [4 0] 2 0
f 12.720723724 _2_ RTR  --- 11 tcp 1540 [13a 2 e 800] ------- [0:0 4:0 28 4] [4 0] 2 0
r 12.734589422 _4_ AGT  --- 10 tcp 1540 [13a 4 2 800] ------- [0:0 4:0 28 4] [3 0] 3 0
s 12.734589422 _4_ AGT  --- 12 ack 40 [0 0 0 0] ------- [4:0 0:0 32 0] [3 0] 0 0
r 12.734589422 _4_ RTR  --- 12 ack 40 [0 0 0 0] ------- [4:0 0:0 32 0] [3 0] 0 0
s 12.734589422 _4_ RTR  --- 12 ack 40 [0 0 0 0] ------- [4:0 0:0 30 2] [3 0] 0 0
r 12.748735686 _4_ AGT  --- 11 tcp 1540 [13a 4 2 800] ------- [0:0 4:0 28 4] [4 0] 3 0
s 12.748735686 _4_ AGT  --- 13 ack 40 [0 0 0 0] ------- [4:0 0:0 32 0] [4 0] 0 0
r 12.748735686 _4_ RTR  --- 13 ack 40 [0 0 0 0] ------- [4:0 0:0 32 0] [4 0] 0 0
s 12.748735686 _4_ RTR  --- 13 ack 40 [0 0 0 0] ------- [4:0 0:0 30 2] [4 0] 0 0
r 12.750601383 _2_ RTR  --- 12 ack 40 [13a 2 4 800] ------- [4:0 0:0 30 2] [3 0] 1 0
f 12.750601383 _2_ RTR  --- 12 ack 40 [13a 2 4 800] ------- [4:0 0:0 29 14] [3 0] 1 0
r 12.752827473 _14_ RTR  --- 12 ack 40 [13a e 2 800] ------- [4:0 0:0 29 14] [3 0] 2 0
f 12.752827473 _14_ RTR  --- 12 ack 40 [13a e 2 800] ------- [4:0 0:0 28 0] [3 0] 2 0
r 12.754973914 _0_ AGT  --- 12 ack 40 [13a 0 e 800] ------- [4:0 0:0 28 0] [3 0] 3 0
s 12.754973914 _0_ AGT  --- 14 tcp 1540 [0 0 0 0] ------- [0:0 4:0 32 0] [5 0] 0 0
r 12.754973914 _0_ RTR  --- 14 tcp 1540 [0 0 0 0] ------- [0:0 4:0 32 0] [5 0] 0 0
s 12.754973914 _0_ RTR  --- 14 tcp 1540 [0 0 0 0] ------- [0:0 4:0 30 14] [5 0] 0 0
r 12.783669979 _14_ RTR  --- 14 tcp 1540 [13a e 0 800] ------- [0:0 4:0 30 14] [5 0] 1 0
f 12.783669979 _14_ RTR  --- 14 tcp 1540 [13a e 0 800] ------- [0:0 4:0 29 2] [5 0] 1 0
r 12.797636069 _2_ RTR  --- 14 tcp 1540 [13a 2 e 800] ------- [0:0 4:0 29 2] [5 0] 2 0
f 12.797636069 _2_ RTR  --- 14 tcp 1540 [13a 2 e 800] ------- [0:0 4:0 28 4] [5 0] 2 0
r 12.811521766 _4_ AGT  --- 14 tcp 1540 [13a 4 2 800] ------- [0:0 4:0 28 4] [5 0] 3 0
s 12.811521766 _4_ AGT  --- 15 ack 40 [0 0 0 0] ------- [4:0 0:0 32 0] [5 0] 0 0
r 12.811521766 _4_ RTR  --- 15 ack 40 [0 0 0 0] ------- [4:0 0:0 32 0] [5 0] 0 0
s 12.811521766 _4_ RTR  --- 15 ack 40 [0 0 0 0] ------- [4:0 0:0 30 2] [5 0] 0 0
r 12.816467463 _2_ RTR  --- 13 ack 40 [13a 2 4 800] ------- [4:0 0:0 30 2] [4 0] 1 0
f 12.816467463 _2_ RTR  --- 13 ack 40 [13a 2 4 800] ------- [4:0 0:0 29 14] [4 0] 1 0
r 12.818313552 _14_ RTR  --- 13 ack 40 [13a e 2 800] ------- [4:0 0:0 29 14] [4 0] 2 0
f 12.818313552 _14_ RTR  --- 13 ack 40 [13a e 2 800] ------- [4:0 0:0 28 0] [4 0] 2 0
r 12.820579987 _0_ AGT  --- 13 ack 40 [13a 0 e 800] ------- [4:0 0:0 28 0] [4 0] 3 0
s 12.820579987 _0_ AGT  --- 16 tcp 1540 [0 0 0 0] ------- [0:0 4:0 32 0] [6 0] 0 0
r 12.820579987 _0_ RTR  --- 16 tcp 1540 [0 0 0 0] ------- [0:0 4:0 32 0] [6 0] 0 0
s 12.820579987 _0_ AGT  --- 17 tcp 1540 [0 0 0 0] ------- [0:0 4:0 32 0] [7 0] 0 0
r 12.820579987 _0_ RTR  --- 17 tcp 1540 [0 0 0 0] ------- [0:0 4:0 32 0] [7 0] 0 0
s 12.820579987 _0_ RTR  --- 16 tcp 1540 [0 0 0 0] ------- [0:0 4:0 30 14] [6 0] 0 0
s 12.820579987 _0_ RTR  --- 17 tcp 1540 [0 0 0 0] ------- [0:0 4:0 30 14] [7 0] 0 0
D 12.861670291 _4_ RTR  CBK 15 ack 40 [13a 2 4 800] ------- [4:0 0:0 30 2] [5 0] 0 0
s 12.861670291 _4_ RTR  --- 0 AODV 32 [0 0 0 0] ------- [4:255 -1:255 1 0] [0x8 1 [0 0] 0.000000] (ERROR)
r 12.863070862 _9_ RTR  --- 0 AODV 32 [0 ffffffff 4 800] ------- [4:255 -1:255 1 0] [0x8 1 [0 0] 0.000000] (ERROR)
r 12.863071086 _5_ RTR  --- 0 AODV 32 [0 ffffffff 4 800] ------- [4:255 -1:255 1 0] [0x8 1 [0 0] 0.000000] (ERROR)
r 12.883555282 _14_ RTR  --- 16 tcp 1540 [13a e 0 800] ------- [0:0 4:0 30 14] [6 0] 1 0
f 12.883555282 _14_ RTR  --- 16 tcp 1540 [13a e 0 800] ------- [0:0 4:0 29 2] [6 0] 1 0
r 12.897522520 _14_ RTR  --- 17 tcp 1540 [13a e 0 800] ------- [0:0 4:0 30 14] [7 0] 1 0
f 12.897522520 _14_ RTR  --- 17 tcp 1540 [13a e 0 800] ------- [0:0 4:0 29 2] [7 0] 1 0
r 12.911728610 _2_ RTR  --- 16 tcp 1540 [13a 2 e 800] ------- [0:0 4:0 29 2] [6 0] 2 0
f 12.911728610 _2_ RTR  --- 16 tcp 1540 [13a 2 e 800] ------- [0:0 4:0 28 4] [6 0] 2 0
r 12.925655396 _2_ RTR  --- 17 tcp 1540 [13a 2 e 800] ------- [0:0 4:0 29 2] [7 0] 2 0
f 12.925655396 _2_ RTR  --- 17 tcp 1540 [13a 2 e 800] ------- [0:0 4:0 28 4] [7 0] 2 0
r 12.939901091 _4_ AGT  --- 16 tcp 1540 [13a 4 2 800] ------- [0:0 4:0 28 4] [6 0] 3 0
s 12.939901091 _4_ AGT  --- 18 ack 40 [0 0 0 0] ------- [4:0 0:0 32 0] [6 0] 0 0
r 12.939901091 _4_ RTR  --- 18 ack 40 [0 0 0 0] ------- [4:0 0:0 32 0] [6 0] 0 0
s 12.939901091 _4_ RTR  --- 0 AODV 48 [0 0 0 0] ------- [4:255 -1:255 5 0] [0x2 1 1 [0 11] [4 8]] (REQUEST)
r 12.941113656 _2_ RTR  --- 0 AODV 48 [0 ffffffff 4 800] ------- [4:255 -1:255 5 0] [0x2 1 1 [0 11] [4 8]] (REQUEST)
r 12.941113663 _9_ RTR  --- 0 AODV 48 [0 ffffffff 4 800] ------- [4:255 -1:255 5 0] [0x2 1 1 [0 11] [4 8]] (REQUEST)
r 12.941113885 _5_ RTR  --- 0 AODV 48 [0 ffffffff 4 800] ------- [4:255 -1:255 5 0] [0x2 1 1 [0 11] [4 8]] (REQUEST)
s 12.942631595 _2_ RTR  --- 0 AODV 48 [0 ffffffff 4 800] ------- [2:255 -1:255 4 0] [0x2 2 1 [0 11] [4 8]] (REQUEST)
s 12.946516203 _5_ RTR  --- 0 AODV 48 [0 ffffffff 4 800] ------- [5:255 -1:255 4 0] [0x2 2 1 [0 11] [4 8]] (REQUEST)
s 12.950563904 _9_ RTR  --- 0 AODV 48 [0 ffffffff 4 800] ------- [9:255 -1:255 4 0] [0x2 2 1 [0 11] [4 8]] (REQUEST)
r 12.955005351 _4_ AGT  --- 17 tcp 1540 [13a 4 2 800] ------- [0:0 4:0 28 4] [7 0] 3 0
s 12.955005351 _4_ AGT  --- 19 ack 40 [0 0 0 0] ------- [4:0 0:0 32 0] [7 0] 0 0
r 12.955005351 _4_ RTR  --- 19 ack 40 [0 0 0 0] ------- [4:0 0:0 32 0] [7 0] 0 0
r 12.956428264 _5_ RTR  --- 0 AODV 48 [0 ffffffff 9 800] ------- [9:255 -1:255 4 0] [0x2 2 1 [0 11] [4 8]] (REQUEST)
r 12.956428301 _4_ RTR  --- 0 AODV 48 [0 ffffffff 9 800] ------- [9:255 -1:255 4 0] [0x2 2 1 [0 11] [4 8]] (REQUEST)
r 12.957486799 _9_ RTR  --- 0 AODV 48 [0 ffffffff 5 800] ------- [5:255 -1:255 4 0] [0x2 2 1 [0 11] [4 8]] (REQUEST)
r 12.957487058 _4_ RTR  --- 0 AODV 48 [0 ffffffff 5 800] ------- [5:255 -1:255 4 0] [0x2 2 1 [0 11] [4 8]] (REQUEST)
r 12.957487061 _2_ RTR  --- 0 AODV 48 [0 ffffffff 5 800] ------- [5:255 -1:255 4 0] [0x2 2 1 [0 11] [4 8]] (REQUEST)
r 12.958685626 _4_ RTR  --- 0 AODV 48 [0 ffffffff 2 800] ------- [2:255 -1:255 4 0] [0x2 2 1 [0 11] [4 8]] (REQUEST)
r 12.958685758 _14_ RTR  --- 0 AODV 48 [0 ffffffff 2 800] ------- [2:255 -1:255 4 0] [0x2 2 1 [0 11] [4 8]] (REQUEST)
r 12.958685786 _6_ RTR  --- 0 AODV 48 [0 ffffffff 2 800] ------- [2:255 -1:255 4 0] [0x2 2 1 [0 11] [4 8]] (REQUEST)
r 12.958685859 _5_ RTR  --- 0 AODV 48 [0 ffffffff 2 800] ------- [2:255 -1:255 4 0] [0x2 2 1 [0 11] [4 8]] (REQUEST)
s 12.961314366 _14_ RTR  --- 0 AODV 48 [0 ffffffff 2 800] ------- [14:255 -1:255 3 0] [0x2 3 1 [0 11] [4 8]] (REQUEST)
r 12.962742930 _6_ RTR  --- 0 AODV 48 [0 ffffffff e 800] ------- [14:255 -1:255 3 0] [0x2 3 1 [0 11] [4 8]] (REQUEST)
r 12.962743063 _2_ RTR  --- 0 AODV 48 [0 ffffffff e 800] ------- [14:255 -1:255 3 0] [0x2 3 1 [0 11] [4 8]] (REQUEST)
r 12.962743174 _0_ RTR  --- 0 AODV 48 [0 ffffffff e 800] ------- [14:255 -1:255 3 0] [0x2 3 1 [0 11] [4 8]] (REQUEST)
s 12.962743174 _0_ RTR  --- 0 AODV 44 [0 0 0 0] ------- [0:255 4:255 30 14] [0x4 1 [0 12] 10.000000] (REPLY)
s 12.963480947 _6_ RTR  --- 0 AODV 48 [0 ffffffff 2 800] ------- [6:255 -1:255 3 0] [0x2 3 1 [0 11] [4 8]] (REQUEST)
r 12.964337596 _14_ RTR  --- 0 AODV 44 [13a e 0 800] ------- [0:255 4:255 30 14] [0x4 1 [0 12] 10.000000] (REPLY)
f 12.964337596 _14_ RTR  --- 0 AODV 44 [13a e 0 800] ------- [0:255 4:255 29 2] [0x4 2 [0 12] 10.000000] (REPLY)
r 12.965680384 _13_ RTR  --- 0 AODV 48 [0 ffffffff 6 800] ------- [6:255 -1:255 3 0] [0x2 3 1 [0 11] [4 8]] (REQUEST)
r 12.965680560 _14_ RTR  --- 0 AODV 48 [0 ffffffff 6 800] ------- [6:255 -1:255 3 0] [0x2 3 1 [0 11] [4 8]] (REQUEST)
r 12.965680721 _2_ RTR  --- 0 AODV 48 [0 ffffffff 6 800] ------- [6:255 -1:255 3 0] [0x2 3 1 [0 11] [4 8]] (REQUEST)
r 12.965680759 _11_ RTR  --- 0 AODV 48 [0 ffffffff 6 800] ------- [6:255 -1:255 3 0] [0x2 3 1 [0 11] [4 8]] (REQUEST)
r 12.967424650 _2_ RTR  --- 0 AODV 44 [13a 2 e 800] ------- [0:255 4:255 29 2] [0x4 2 [0 12] 10.000000] (REPLY)
f 12.967424650 _2_ RTR  --- 0 AODV 44 [13a 2 e 800] ------- [0:255 4:255 28 4] [0x4 3 [0 12] 10.000000] (REPLY)
s 12.969466757 _13_ RTR  --- 0 AODV 48 [0 ffffffff 6 800] ------- [13:255 -1:255 2 0] [0x2 4 1 [0 11] [4 8]] (REQUEST)
r 12.969762344 _4_ RTR  --- 0 AODV 44 [13a 4 2 800] ------- [0:255 4:255 28 4] [0x4 3 [0 12] 10.000000] (REPLY)
s 12.969762344 _4_ RTR  --- 18 ack 40 [0 0 0 0] ------- [4:0 0:0 30 2] [6 0] 0 0
s 12.971798041 _11_ RTR  --- 0 AODV 48 [0 ffffffff 6 800] ------- [11:255 -1:255 2 0] [0x2 4 1 [0 11] [4 8]] (REQUEST)
r 12.972088039 _2_ RTR  --- 18 ack 40 [13a 2 4 800] ------- [4:0 0:0 30 2] [6 0] 1 0
f 12.972088039 _2_ RTR  --- 18 ack 40 [13a 2 4 800] ------- [4:0 0:0 29 14] [6 0] 1 0
r 12.973914128 _14_ RTR  --- 18 ack 40 [13a e 2 800] ------- [4:0 0:0 29 14] [6 0] 2 0
f 12.973914128 _14_ RTR  --- 18 ack 40 [13a e 2 800] ------- [4:0 0:0 28 0] [6 0] 2 0
r 12.976060549 _0_ AGT  --- 18 ack 40 [13a 0 e 800] ------- [4:0 0:0 28 0] [6 0] 3 0
s 12.976060549 _0_ AGT  --- 20 tcp 1540 [0 0 0 0] ------- [0:0 4:0 32 0] [8 0] 0 0
r 12.976060549 _0_ RTR  --- 20 tcp 1540 [0 0 0 0] ------- [0:0 4:0 32 0] [8 0] 0 0
s 12.976060549 _0_ AGT  --- 21 tcp 1540 [0 0 0 0] ------- [0:0 4:0 32 0] [9 0] 0 0
r 12.976060549 _0_ RTR  --- 21 tcp 1540 [0 0 0 0] ------- [0:0 4:0 32 0] [9 0] 0 0
s 12.976060549 _0_ RTR  --- 20 tcp 1540 [0 0 0 0] ------- [0:0 4:0 30 14] [8 0] 0 0
s 12.976060549 _0_ RTR  --- 21 tcp 1540 [0 0 0 0] ------- [0:0 4:0 30 14] [9 0] 0 0
s 12.979762344 _4_ RTR  --- 19 ack 40 [0 0 0 0] ------- [4:0 0:0 30 2] [7 0] 0 0
r 13.005499587 _11_ RTR  --- 0 AODV 48 [0 ffffffff d 800] ------- [13:255 -1:255 2 0] [0x2 4 1 [0 11] [4 8]] (REQUEST)
r 13.005499601 _6_ RTR  --- 0 AODV 48 [0 ffffffff d 800] ------- [13:255 -1:255 2 0] [0x2 4 1 [0 11] [4 8]] (REQUEST)
r 13.006597962 _13_ RTR  --- 0 AODV 48 [0 ffffffff b 800] ------- [11:255 -1:255 2 0] [0x2 4 1 [0 11] [4 8]] (REQUEST)
r 13.006598236 _1_ RTR  --- 0 AODV 48 [0 ffffffff b 800] ------- [11:255 -1:255 2 0] [0x2 4 1 [0 11] [4 8]] (REQUEST)
r 13.006598349 _6_ RTR  --- 0 AODV 48 [0 ffffffff b 800] ------- [11:255 -1:255 2 0] [0x2 4 1 [0 11] [4 8]] (REQUEST)
s 13.014657168 _1_ RTR  --- 0 AODV 48 [0 ffffffff b 800] ------- [1:255 -1:255 1 0] [0x2 5 1 [0 11] [4 8]] (REQUEST)
r 13.015825592 _10_ RTR  --- 0 AODV 48 [0 ffffffff 1 800] ------- [1:255 -1:255 1 0] [0x2 5 1 [0 11] [4 8]] (REQUEST)
D 13.015825592 _10_ RTR  TTL 0 AODV 48 [0 ffffffff 1 800] ------- [10:255 -1:255 0 0] [0x2 6 1 [0 11] [4 8]] (REQUEST)
D 13.020865958 _4_ RTR  CBK 19 ack 40 [13a 2 4 800] ------- [4:0 0:0 30 2] [7 0] 0 0
s 13.020865958 _4_ RTR  --- 0 AODV 32 [0 0 0 0] ------- [4:255 -1:255 1 0] [0x8 1 [0 0] 0.000000] (ERROR)
r 13.021726532 _9_ RTR  --- 0 AODV 32 [0 ffffffff 4 800] ------- [4:255 -1:255 1 0] [0x8 1 [0 0] 0.000000] (ERROR)
r 13.021726752 _5_ RTR  --- 0 AODV 32 [0 ffffffff 4 800] ------- [4:255 -1:255 1 0] [0x8 1 [0 0] 0.000000] (ERROR)
r 13.035525361 _14_ RTR  --- 20 tcp 1540 [13a e 0 800] ------- [0:0 4:0 30 14] [8 0] 1 0
f 13.035525361 _14_ RTR  --- 20 tcp 1540 [13a e 0 800] ------- [0:0 4:0 29 2] [8 0] 1 0
r 13.049411450 _2_ RTR  --- 20 tcp 1540 [13a 2 e 800] ------- [0:0 4:0 29 2] [8 0] 2 0
f 13.049411450 _2_ RTR  --- 20 tcp 1540 [13a 2 e 800] ------- [0:0 4:0 28 4] [8 0] 2 0
r 13.063557144 _4_ AGT  --- 20 tcp 1540 [13a 4 2 800] ------- [0:0 4:0 28 4] [8 0] 3 0
s 13.063557144 _4_ AGT  --- 22 ack 40 [0 0 0 0] ------- [4:0 0:0 32 0] [8 0] 0 0
r 13.063557144 _4_ RTR  --- 22 ack 40 [0 0 0 0] ------- [4:0 0:0 32 0] [8 0] 0 0
s 13.063557144 _4_ RTR  --- 0 AODV 48 [0 0 0 0] ------- [4:255 -1:255 5 0] [0x2 1 2 [0 13] [4 12]] (REQUEST)
r 13.064809708 _2_ RTR  --- 0 AODV 48 [0 ffffffff 4 800] ------- [4:255 -1:255 5 0] [0x2 1 2 [0 13] [4 12]] (REQUEST)
r 13.064809719 _9_ RTR  --- 0 AODV 48 [0 ffffffff 4 800] ------- [4:255 -1:255 5 0] [0x2 1 2 [0 13] [4 12]] (REQUEST)
r 13.064809937 _5_ RTR  --- 0 AODV 48 [0 ffffffff 4 800] ------- [4:255 -1:255 5 0] [0x2 1 2 [0 13] [4 12]] (REQUEST)
s 13.064889284 _5_ RTR  --- 0 AODV 48 [0 ffffffff 4 800] ------- [5:255 -1:255 4 0] [0x2 2 2 [0 13] [4 12]] (REQUEST)
r 13.066177817 _9_ RTR  --- 0 AODV 48 [0 ffffffff 5 800] ------- [5:255 -1:255 4 0] [0x2 2 2 [0 13] [4 12]] (REQUEST)
r 13.066178078 _4_ RTR  --- 0 AODV 48 [0 ffffffff 5 800] ------- [5:255 -1:255 4 0] [0x2 2 2 [0 13] [4 12]] (REQUEST)
r 13.066178081 _2_ RTR  --- 0 AODV 48 [0 ffffffff 5 800] ------- [5:255 -1:255 4 0] [0x2 2 2 [0 13] [4 12]] (REQUEST)
s 13.067889205 _9_ RTR  --- 0 AODV 48 [0 ffffffff 4 800] ------- [9:255 -1:255 4 0] [0x2 2 2 [0 13] [4 12]] (REQUEST)
r 13.069317738 _5_ RTR  --- 0 AODV 48 [0 ffffffff 9 800] ------- [9:255 -1:255 4 0] [0x2 2 2 [0 13] [4 12]] (REQUEST)
r 13.069317781 _4_ RTR  --- 0 AODV 48 [0 ffffffff 9 800] ------- [9:255 -1:255 4 0] [0x2 2 2 [0 13] [4 12]] (REQUEST)
s 13.069684137 _2_ RTR  --- 0 AODV 48 [0 ffffffff 4 800] ------- [2:255 -1:255 4 0] [0x2 2 2 [0 13] [4 12]] (REQUEST)
r 13.079814484 _14_ RTR  --- 21 tcp 1540 [13a e 0 800] ------- [0:0 4:0 30 14] [9 0] 1 0
f 13.079814484 _14_ RTR  --- 21 tcp 1540 [13a e 0 800] ------- [0:0 4:0 29 2] [9 0] 1 0
r 13.081097736 _4_ RTR  --- 0 AODV 48 [0 ffffffff 2 800] ------- [2:255 -1:255 4 0] [0x2 2 2 [0 13] [4 12]] (REQUEST)
r 13.081097868 _14_ RTR  --- 0 AODV 48 [0 ffffffff 2 800] ------- [2:255 -1:255 4 0] [0x2 2 2 [0 13] [4 12]] (REQUEST)
r 13.081097890 _6_ RTR  --- 0 AODV 48 [0 ffffffff 2 800] ------- [2:255 -1:255 4 0] [0x2 2 2 [0 13] [4 12]] (REQUEST)
r 13.081097967 _5_ RTR  --- 0 AODV 48 [0 ffffffff 2 800] ------- [2:255 -1:255 4 0] [0x2 2 2 [0 13] [4 12]] (REQUEST)
s 13.085424171 _14_ RTR  --- 0 AODV 48 [0 ffffffff 2 800] ------- [14:255 -1:255 3 0] [0x2 3 2 [0 13] [4 12]] (REQUEST)
s 13.086148944 _6_ RTR  --- 0 AODV 48 [0 ffffffff 2 800] ------- [6:255 -1:255 3 0] [0x2 3 2 [0 13] [4 12]] (REQUEST)
r 13.094809957 _2_ RTR  --- 21 tcp 1540 [13a 2 e 800] ------- [0:0 4:0 29 2] [9 0] 2 0
f 13.094809957 _2_ RTR  --- 21 tcp 1540 [13a 2 e 800] ------- [0:0 4:0 28 4] [9 0] 2 0
r 13.096123210 _6_ RTR  --- 0 AODV 48 [0 ffffffff e 800] ------- [14:255 -1:255 3 0] [0x2 3 2 [0 13] [4 12]] (REQUEST)
r 13.096123349 _2_ RTR  --- 0 AODV 48 [0 ffffffff e 800] ------- [14:255 -1:255 3 0] [0x2 3 2 [0 13] [4 12]] (REQUEST)
r 13.096123456 _0_ RTR  --- 0 AODV 48 [0 ffffffff e 800] ------- [14:255 -1:255 3 0] [0x2 3 2 [0 13] [4 12]] (REQUEST)
s 13.096123456 _0_ RTR  --- 0 AODV 44 [0 0 0 0] ------- [0:255 4:255 30 14] [0x4 1 [0 14] 10.000000] (REPLY)
r 13.109755042 _4_ AGT  --- 21 tcp 1540 [13a 4 2 800] ------- [0:0 4:0 28 4] [9 0] 3 0
s 13.109755042 _4_ AGT  --- 23 ack 40 [0 0 0 0] ------- [4:0 0:0 32 0] [9 0] 0 0
r 13.109755042 _4_ RTR  --- 23 ack 40 [0 0 0 0] ------- [4:0 0:0 32 0] [9 0] 0 0
r 13.112124377 _14_ RTR  --- 0 AODV 44 [13a e 0 800] ------- [0:255 4:255 30 14] [0x4 1 [0 14] 10.000000] (REPLY)
f 13.112124377 _14_ RTR  --- 0 AODV 44 [13a e 0 800] ------- [0:255 4:255 29 2] [0x4 2 [0 14] 10.000000] (REPLY)
r 13.113427175 _13_ RTR  --- 0 AODV 48 [0 ffffffff 6 800] ------- [6:255 -1:255 3 0] [0x2 3 2 [0 13] [4 12]] (REQUEST)
r 13.113427337 _14_ RTR  --- 0 AODV 48 [0 ffffffff 6 800] ------- [6:255 -1:255 3 0] [0x2 3 2 [0 13] [4 12]] (REQUEST)
r 13.113427497 _2_ RTR  --- 0 AODV 48 [0 ffffffff 6 800] ------- [6:255 -1:255 3 0] [0x2 3 2 [0 13] [4 12]] (REQUEST)
r 13.113427542 _11_ RTR  --- 0 AODV 48 [0 ffffffff 6 800] ------- [6:255 -1:255 3 0] [0x2 3 2 [0 13] [4 12]] (REQUEST)
r 13.115371426 _2_ RTR  --- 0 AODV 44 [13a 2 e 800] ------- [0:255 4:255 29 2] [0x4 2 [0 14] 10.000000] (REPLY)
f 13.115371426 _2_ RTR  --- 0 AODV 44 [13a 2 e 800] ------- [0:255 4:255 28 4] [0x4 3 [0 14] 10.000000] (REPLY)
r 13.117749118 _4_ RTR  --- 0 AODV 44 [13a 4 2 800] ------- [0:255 4:255 28 4] [0x4 3 [0 14] 10.000000] (REPLY)
s 13.117749118 _4_ RTR  --- 22 ack 40 [0 0 0 0] ------- [4:0 0:0 30 2] [8 0] 0 0
s 13.117874590 _13_ RTR  --- 0 AODV 48 [0 ffffffff 6 800] ------- [13:255 -1:255 2 0] [0x2 4 2 [0 13] [4 12]] (REQUEST)
s 13.119743897 _11_ RTR  --- 0 AODV 48 [0 ffffffff 6 800] ------- [11:255 -1:255 2 0] [0x2 4 2 [0 13] [4 12]] (REQUEST)
r 13.119994811 _2_ RTR  --- 22 ack 40 [13a 2 4 800] ------- [4:0 0:0 30 2] [8 0] 1 0
f 13.119994811 _2_ RTR  --- 22 ack 40 [13a 2 4 800] ------- [4:0 0:0 29 14] [8 0] 1 0