n -t * -s 0  -x 424 -y 152 -Z 0 -z 25  -v circle -c black
n -t * -s 1  -x 145 -y 528 -Z 0 -z 25  -v circle -c black
n -t * -s 2  -x 122 -y 790 -Z 0 -z 25  -v circle -c black
n -t * -s 3  -x 754 -y 554 -Z 0 -z 25  -v circle -c black
n -t * -s 4  -x 528 -y 469 -Z 0 -z 25  -v circle -c black
n -t * -s 5  -x 211 -y 126 -Z 0 -z 25  -v circle -c black
n -t * -s 6  -x 448 -y 338 -Z 0 -z 25  -v circle -c black
n -t * -s 7  -x 400 -y 453 -Z 0 -z 25  -v circle -c black
n -t * -s 8  -x 28 -y 870 -Z 0 -z 25  -v circle -c black
n -t * -s 9  -x 600 -y 543 -Z 0 -z 25  -v circle -c black
V -t * -v 1.0a5 -a 0
W -t * -x 1000 -y 1000
A -t * -n 1 -p 0 -o 0x7fffffff -c 30 -a 1
A -t * -h 1 -m 1073741823 -s 0
+ -t 0.010000000 -s 0 -d -1 -p tcp -e 40 -c 2 -a 0 -i 0 -k AGT 
- -t 0.010000000 -s 0 -d -1 -p tcp -e 40 -c 2 -a 0 -i 0 -k AGT
h -t 0.010000000 -s 0 -d -1 -p tcp -e 40 -c 2 -a 0 -i 0 -k AGT
+ -t 0.010000000 -s 0 -d -1 -p AODV -e 48 -c 2 -a 0 -i 0 -k RTR 
- -t 0.010000000 -s 0 -d -1 -p AODV -e 48 -c 2 -a 0 -i 0 -k RTR
h -t 0.010000000 -s 0 -d -1 -p AODV -e 48 -c 2 -a 0 -i 0 -k RTR
r -t 0.010988625 -s 6 -d -1 -p AODV -e 48 -c 2 -a 0 -i 0 -k RTR
r -t 0.010988715 -s 5 -d -1 -p AODV -e 48 -c 2 -a 0 -i 0 -k RTR
+ -t 0.011869852 -s 6 -d -1 -p AODV -e 48 -c 2 -a 0 -i 0 -k RTR 
- -t 0.011869852 -s 6 -d -1 -p AODV -e 48 -c 2 -a 0 -i 0 -k RTR
h -t 0.011869852 -s 6 -d -1 -p AODV -e 48 -c 2 -a 0 -i 0 -k RTR
r -t 0.012818267 -s 7 -d -1 -p AODV -e 48 -c 2 -a 0 -i 0 -k RTR
r -t 0.012818364 -s 4 -d -1 -p AODV -e 48 -c 2 -a 0 -i 0 -k RTR
+ -t 0.012818364 -s 4 -d 6 -p AODV -e 44 -c 2 -a 0 -i 0 -k RTR 
- -t 0.012818364 -s 4 -d 6 -p AODV -e 44 -c 2 -a 0 -i 0 -k RTR
h -t 0.012818364 -s 4 -d 6 -p AODV -e 44 -c 2 -a 0 -i 0 -k RTR
r -t 0.012818477 -s 0 -d -1 -p AODV -e 48 -c 2 -a 0 -i 0 -k RTR
+ -t 0.015400449 -s 5 -d -1 -p AODV -e 48 -c 2 -a 0 -i 0 -k RTR 
- -t 0.015400449 -s 5 -d -1 -p AODV -e 48 -c 2 -a 0 -i 0 -k RTR
h -t 0.015400449 -s 5 -d -1 -p AODV -e 48 -c 2 -a 0 -i 0 -k RTR
+ -t 0.017464945 -s 6 -d 0 -p AODV -e 44 -c 2 -a 0 -i 0 -k RTR 
- -t 0.017464945 -s 6 -d 0 -p AODV -e 44 -c 2 -a 0 -i 0 -k RTR
h -t 0.017464945 -s 6 -d 0 -p AODV -e 44 -c 2 -a 0 -i 0 -k RTR
+ -t 0.020983028 -s 7 -d -1 -p AODV -e 48 -c 2 -a 0 -i 0 -k RTR 
- -t 0.020983028 -s 7 -d -1 -p AODV -e 48 -c 2 -a 0 -i 0 -k RTR
h -t 0.020983028 -s 7 -d -1 -p AODV -e 48 -c 2 -a 0 -i 0 -k RTR
+ -t 0.022696321 -s 0 -d 6 -p tcp -e 40 -c 2 -a 0 -i 0 -k RTR 
- -t 0.022696321 -s 0 -d 6 -p tcp -e 40 -c 2 -a 0 -i 0 -k RTR
h -t 0.022696321 -s 0 -d 6 -p tcp -e 40 -c 2 -a 0 -i 0 -k RTR
r -t 0.024039471 -s 0 -d -1 -p AODV -e 48 -c 2 -a 0 -i 0 -k RTR
+ -t 0.025811347 -s 6 -d 4 -p tcp -e 40 -c 2 -a 0 -i 0 -k RTR 
- -t 0.025811347 -s 6 -d 4 -p tcp -e 40 -c 2 -a 0 -i 0 -k RTR
h -t 0.025811347 -s 6 -d 4 -p tcp -e 40 -c 2 -a 0 -i 0 -k RTR
r -t 0.027174143 -s 6 -d -1 -p AODV -e 48 -c 2 -a 0 -i 0 -k RTR
r -t 0.027174158 -s 4 -d -1 -p AODV -e 48 -c 2 -a 0 -i 0 -k RTR
r -t 0.027174459 -s 9 -d -1 -p AODV -e 48 -c 2 -a 0 -i 0 -k RTR
r -t 0.028765678 -s 4 -d 4 -p tcp -e 40 -c 2 -a 0 -i 0 -k AGT
+ -t 0.028765678 -s 4 -d -1 -p ack -e 40 -c 2 -a 0 -i 1 -k AGT 
- -t 0.028765678 -s 4 -d -1 -p ack -e 40 -c 2 -a 0 -i 1 -k AGT
h -t 0.028765678 -s 4 -d -1 -p ack -e 40 -c 2 -a 0 -i 1 -k AGT
+ -t 0.028765678 -s 4 -d 6 -p ack -e 40 -c 2 -a 0 -i 1 -k RTR 
- -t 0.028765678 -s 4 -d 6 -p ack -e 40 -c 2 -a 0 -i 1 -k RTR
h -t 0.028765678 -s 4 -d 6 -p ack -e 40 -c 2 -a 0 -i 1 -k RTR
+ -t 0.030831213 -s 6 -d 0 -p ack -e 40 -c 2 -a 0 -i 1 -k RTR 
- -t 0.030831213 -s 6 -d 0 -p ack -e 40 -c 2 -a 0 -i 1 -k RTR
h -t 0.030831213 -s 6 -d 0 -p ack -e 40 -c 2 -a 0 -i 1 -k RTR
+ -t 0.031261316 -s 9 -d -1 -p AODV -e 48 -c 2 -a 0 -i 0 -k RTR 
- -t 0.031261316 -s 9 -d -1 -p AODV -e 48 -c 2 -a 0 -i 0 -k RTR
h -t 0.031261316 -s 9 -d -1 -p AODV -e 48 -c 2 -a 0 -i 0 -k RTR
r -t 0.032877089 -s 0 -d 0 -p ack -e 40 -c 2 -a 0 -i 1 -k AGT
+ -t 0.032877089 -s 0 -d -1 -p tcp -e 1540 -c 2 -a 0 -i 2 -k AGT 
- -t 0.032877089 -s 0 -d -1 -p tcp -e 1540 -c 2 -a 0 -i 2 -k AGT
h -t 0.032877089 -s 0 -d -1 -p tcp -e 1540 -c 2 -a 0 -i 2 -k AGT
+ -t 0.032877089 -s 0 -d -1 -p tcp -e 1540 -c 2 -a 0 -i 3 -k AGT 
- -t 0.032877089 -s 0 -d -1 -p tcp -e 1540 -c 2 -a 0 -i 3 -k AGT
h -t 0.032877089 -s 0 -d -1 -p tcp -e 1540 -c 2 -a 0 -i 3 -k AGT
+ -t 0.032877089 -s 0 -d 6 -p tcp -e 1540 -c 2 -a 0 -i 2 -k RTR 
- -t 0.032877089 -s 0 -d 6 -p tcp -e 1540 -c 2 -a 0 -i 2 -k RTR
h -t 0.032877089 -s 0 -d 6 -p tcp -e 1540 -c 2 -a 0 -i 2 -k RTR
+ -t 0.032877089 -s 0 -d 6 -p tcp -e 1540 -c 2 -a 0 -i 3 -k RTR 
- -t 0.032877089 -s 0 -d 6 -p tcp -e 1540 -c 2 -a 0 -i 3 -k RTR
h -t 0.032877089 -s 0 -d 6 -p tcp -e 1540 -c 2 -a 0 -i 3 -k RTR
+ -t 0.047102964 -s 6 -d 4 -p tcp -e 1540 -c 2 -a 0 -i 2 -k RTR 
- -t 0.047102964 -s 6 -d 4 -p tcp -e 1540 -c 2 -a 0 -i 2 -k RTR
h -t 0.047102964 -s 6 -d 4 -p tcp -e 1540 -c 2 -a 0 -i 2 -k RTR
r -t 0.061088499 -s 4 -d 4 -p tcp -e 1540 -c 2 -a 0 -i 2 -k AGT
+ -t 0.061088499 -s 4 -d -1 -p ack -e 40 -c 2 -a 0 -i 4 -k AGT 
- -t 0.061088499 -s 4 -d -1 -p ack -e 40 -c 2 -a 0 -i 4 -k AGT
h -t 0.061088499 -s 4 -d -1 -p ack -e 40 -c 2 -a 0 -i 4 -k AGT
+ -t 0.061088499 -s 4 -d 6 -p ack -e 40 -c 2 -a 0 -i 4 -k RTR 
- -t 0.061088499 -s 4 -d 6 -p ack -e 40 -c 2 -a 0 -i 4 -k RTR
h -t 0.061088499 -s 4 -d 6 -p ack -e 40 -c 2 -a 0 -i 4 -k RTR
+ -t 0.062954034 -s 6 -d 0 -p ack -e 40 -c 2 -a 0 -i 4 -k RTR 
- -t 0.062954034 -s 6 -d 0 -p ack -e 40 -c 2 -a 0 -i 4 -k RTR
h -t 0.062954034 -s 6 -d 0 -p ack -e 40 -c 2 -a 0 -i 4 -k RTR
+ -t 0.077030510 -s 6 -d 4 -p tcp -e 1540 -c 2 -a 0 -i 3 -k RTR 
- -t 0.077030510 -s 6 -d 4 -p tcp -e 1540 -c 2 -a 0 -i 3 -k RTR
h -t 0.077030510 -s 6 -d 4 -p tcp -e 1540 -c 2 -a 0 -i 3 -k RTR
r -t 0.078896385 -s 0 -d 0 -p ack -e 40 -c 2 -a 0 -i 4 -k AGT
+ -t 0.078896385 -s 0 -d -1 -p tcp -e 1540 -c 2 -a 0 -i 5 -k AGT 
- -t 0.078896385 -s 0 -d -1 -p tcp -e 1540 -c 2 -a 0 -i 5 -k AGT
h -t 0.078896385 -s 0 -d -1 -p tcp -e 1540 -c 2 -a 0 -i 5 -k AGT
+ -t 0.078896385 -s 0 -d -1 -p tcp -e 1540 -c 2 -a 0 -i 6 -k AGT 
- -t 0.078896385 -s 0 -d -1 -p tcp -e 1540 -c 2 -a 0 -i 6 -k AGT
h -t 0.078896385 -s 0 -d -1 -p tcp -e 1540 -c 2 -a 0 -i 6 -k AGT
+ -t 0.078896385 -s 0 -d 6 -p tcp -e 1540 -c 2 -a 0 -i 5 -k RTR 
- -t 0.078896385 -s 0 -d 6 -p tcp -e 1540 -c 2 -a 0 -i 5 -k RTR
h -t 0.078896385 -s 0 -d 6 -p tcp -e 1540 -c 2 -a 0 -i 5 -k RTR
+ -t 0.078896385 -s 0 -d 6 -p tcp -e 1540 -c 2 -a 0 -i 6 -k RTR 
- -t 0.078896385 -s 0 -d 6 -p tcp -e 1540 -c 2 -a 0 -i 6 -k RTR
h -t 0.078896385 -s 0 -d 6 -p tcp -e 1540 -c 2 -a 0 -i 6 -k RTR
r -t 0.092802545 -s 4 -d 4 -p tcp -e 1540 -c 2 -a 0 -i 3 -k AGT
+ -t 0.092802545 -s 4 -d -1 -p ack -e 40 -c 2 -a 0 -i 7 -k AGT 
- -t 0.092802545 -s 4 -d -1 -p ack -e 40 -c 2 -a 0 -i 7 -k AGT
h -t 0.092802545 -s 4 -d -1 -p ack -e 40 -c 2 -a 0 -i 7 -k AGT
+ -t 0.092802545 -s 4 -d 6 -p ack -e 40 -c 2 -a 0 -i 7 -k RTR 
- -t 0.092802545 -s 4 -d 6 -p ack -e 40 -c 2 -a 0 -i 7 -k RTR
h -t 0.092802545 -s 4 -d 6 -p ack -e 40 -c 2 -a 0 -i 7 -k RTR
+ -t 0.094748080 -s 6 -d 0 -p ack -e 40 -c 2 -a 0 -i 7 -k RTR 
- -t 0.094748080 -s 6 -d 0 -p ack -e 40 -c 2 -a 0 -i 7 -k RTR
h -t 0.094748080 -s 6 -d 0 -p ack -e 40 -c 2 -a 0 -i 7 -k RTR
+ -t 0.108644556 -s 6 -d 4 -p tcp -e 1540 -c 2 -a 0 -i 5 -k RTR 
- -t 0.108644556 -s 6 -d 4 -p tcp -e 1540 -c 2 -a 0 -i 5 -k RTR
h -t 0.108644556 -s 6 -d 4 -p tcp -e 1540 -c 2 -a 0 -i 5 -k RTR
+ -t 0.123617057 -s 6 -d 4 -p tcp -e 1540 -c 2 -a 0 -i 6 -k RTR 
- -t 0.123617057 -s 6 -d 4 -p tcp -e 1540 -c 2 -a 0 -i 6 -k RTR
h -t 0.123617057 -s 6 -d 4 -p tcp -e 1540 -c 2 -a 0 -i 6 -k RTR
r -t 0.125722932 -s 0 -d 0 -p ack -e 40 -c 2 -a 0 -i 7 -k AGT
+ -t 0.125722932 -s 0 -d -1 -p tcp -e 1540 -c 2 -a 0 -i 8 -k AGT 
- -t 0.125722932 -s 0 -d -1 -p tcp -e 1540 -c 2 -a 0 -i 8 -k AGT
h -t 0.125722932 -s 0 -d -1 -p tcp -e 1540 -c 2 -a 0 -i 8 -k AGT
+ -t 0.125722932 -s 0 -d -1 -p tcp -e 1540 -c 2 -a 0 -i 9 -k AGT 
- -t 0.125722932 -s 0 -d -1 -p tcp -e 1540 -c 2 -a 0 -i 9 -k AGT
h -t 0.125722932 -s 0 -d -1 -p tcp -e 1540 -c 2 -a 0 -i 9 -k AGT
+ -t 0.125722932 -s 0 -d 6 -p tcp -e 1540 -c 2 -a 0 -i 8 -k RTR 
- -t 0.125722932 -s 0 -d 6 -p tcp -e 1540 -c 2 -a 0 -i 8 -k RTR
h -t 0.125722932 -s 0 -d 6 -p tcp -e 1540 -c 2 -a 0 -i 8 -k RTR
+ -t 0.125722932 -s 0 -d 6 -p tcp -e 1540 -c 2 -a 0 -i 9 -k RTR 
- -t 0.125722932 -s 0 -d 6 -p tcp -e 1540 -c 2 -a 0 -i 9 -k RTR
h -t 0.125722932 -s 0 -d 6 -p tcp -e 1540 -c 2 -a 0 -i 9 -k RTR
r -t 0.139609092 -s 4 -d 4 -p tcp -e 1540 -c 2 -a 0 -i 5 -k AGT
+ -t 0.139609092 -s 4 -d -1 -p ack -e 40 -c 2 -a 0 -i 10 -k AGT 
- -t 0.139609092 -s 4 -d -1 -p ack -e 40 -c 2 -a 0 -i 10 -k AGT
h -t 0.139609092 -s 4 -d -1 -p ack -e 40 -c 2 -a 0 -i 10 -k AGT
+ -t 0.139609092 -s 4 -d 6 -p ack -e 40 -c 2 -a 0 -i 10 -k RTR 
- -t 0.139609092 -s 4 -d 6 -p ack -e 40 -c 2 -a 0 -i 10 -k RTR
h -t 0.139609092 -s 4 -d 6 -p ack -e 40 -c 2 -a 0 -i 10 -k RTR
+ -t 0.141554627 -s 6 -d 0 -p ack -e 40 -c 2 -a 0 -i 10 -k RTR 
- -t 0.141554627 -s 6 -d 0 -p ack -e 40 -c 2 -a 0 -i 10 -k RTR
h -t 0.141554627 -s 6 -d 0 -p ack -e 40 -c 2 -a 0 -i 10 -k RTR
r -t 0.155600162 -s 4 -d 4 -p tcp -e 1540 -c 2 -a 0 -i 6 -k AGT
+ -t 0.155600162 -s 4 -d -1 -p ack -e 40 -c 2 -a 0 -i 11 -k AGT 
- -t 0.155600162 -s 4 -d -1 -p ack -e 40 -c 2 -a 0 -i 11 -k AGT
h -t 0.155600162 -s 4 -d -1 -p ack -e 40 -c 2 -a 0 -i 11 -k AGT
+ -t 0.155600162 -s 4 -d 6 -p ack -e 40 -c 2 -a 0 -i 11 -k RTR 
- -t 0.155600162 -s 4 -d 6 -p ack -e 40 -c 2 -a 0 -i 11 -k RTR
h -t 0.155600162 -s 4 -d 6 -p ack -e 40 -c 2 -a 0 -i 11 -k RTR
r -t 0.157022845 -s 4 -d -1 -p AODV -e 48 -c 2 -a 0 -i 0 -k RTR
r -t 0.157023016 -s 3 -d -1 -p AODV -e 48 -c 2 -a 0 -i 0 -k RTR
r -t 0.157023232 -s 7 -d -1 -p AODV -e 48 -c 2 -a 0 -i 0 -k RTR
+ -t 0.158634380 -s 6 -d 0 -p ack -e 40 -c 2 -a 0 -i 11 -k RTR 
- -t 0.158634380 -s 6 -d 0 -p ack -e 40 -c 2 -a 0 -i 11 -k RTR
h -t 0.158634380 -s 6 -d 0 -p ack -e 40 -c 2 -a 0 -i 11 -k RTR
+ -t 0.159592953 -s 3 -d -1 -p AODV -e 48 -c 2 -a 0 -i 0 -k RTR 
- -t 0.159592953 -s 3 -d -1 -p AODV -e 48 -c 2 -a 0 -i 0 -k RTR
h -t 0.159592953 -s 3 -d -1 -p AODV -e 48 -c 2 -a 0 -i 0 -k RTR
r -t 0.160540256 -s 0 -d 0 -p ack -e 40 -c 2 -a 0 -i 10 -k AGT
+ -t 0.160540256 -s 0 -d -1 -p tcp -e 1540 -c 2 -a 0 -i 12 -k AGT 
- -t 0.160540256 -s 0 -d -1 -p tcp -e 1540 -c 2 -a 0 -i 12 -k AGT
h -t 0.160540256 -s 0 -d -1 -p tcp -e 1540 -c 2 -a 0 -i 12 -k AGT
+ -t 0.160540256 -s 0 -d -1 -p tcp -e 1540 -c 2 -a 0 -i 13 -k AGT 
- -t 0.160540256 -s 0 -d -1 -p tcp -e 1540 -c 2 -a 0 -i 13 -k AGT
h -t 0.160540256 -s 0 -d -1 -p tcp -e 1540 -c 2 -a 0 -i 13 -k AGT
+ -t 0.160540256 -s 0 -d 6 -p tcp -e 1540 -c 2 -a 0 -i 12 -k RTR 
- -t 0.160540256 -s 0 -d 6 -p tcp -e 1540 -c 2 -a 0 -i 12 -k RTR
h -t 0.160540256 -s 0 -d 6 -p tcp -e 1540 -c 2 -a 0 -i 12 -k RTR
+ -t 0.160540256 -s 0 -d 6 -p tcp -e 1540 -c 2 -a 0 -i 13 -k RTR 
- -t 0.160540256 -s 0 -d 6 -p tcp -e 1540 -c 2 -a 0 -i 13 -k RTR
h -t 0.160540256 -s 0 -d 6 -p tcp -e 1540 -c 2 -a 0 -i 13 -k RTR
r -t 0.162586756 -s 0 -d 0 -p ack -e 40 -c 2 -a 0 -i 11 -k AGT
+ -t 0.162586756 -s 0 -d -1 -p tcp -e 1540 -c 2 -a 0 -i 14 -k AGT 
- -t 0.162586756 -s 0 -d -1 -p tcp -e 1540 -c 2 -a 0 -i 14 -k AGT
h -t 0.162586756 -s 0 -d -1 -p tcp -e 1540 -c 2 -a 0 -i 14 -k AGT
+ -t 0.162586756 -s 0 -d -1 -p tcp -e 1540 -c 2 -a 0 -i 15 -k AGT 
- -t 0.162586756 -s 0 -d -1 -p tcp -e 1540 -c 2 -a 0 -i 15 -k AGT
h -t 0.162586756 -s 0 -d -1 -p tcp -e 1540 -c 2 -a 0 -i 15 -k AGT
+ -t 0.162586756 -s 0 -d 6 -p tcp -e 1540 -c 2 -a 0 -i 14 -k RTR 
- -t 0.162586756 -s 0 -d 6 -p tcp -e 1540 -c 2 -a 0 -i 14 -k RTR
h -t 0.162586756 -s 0 -d 6 -p tcp -e 1540 -c 2 -a 0 -i 14 -k RTR
+ -t 0.162586756 -s 0 -d 6 -p tcp -e 1540 -c 2 -a 0 -i 15 -k RTR 
- -t 0.162586756 -s 0 -d 6 -p tcp -e 1540 -c 2 -a 0 -i 15 -k RTR
h -t 0.162586756 -s 0 -d 6 -p tcp -e 1540 -c 2 -a 0 -i 15 -k RTR
+ -t 0.176532632 -s 6 -d 4 -p tcp -e 1540 -c 2 -a 0 -i 8 -k RTR 
- -t 0.176532632 -s 6 -d 4 -p tcp -e 1540 -c 2 -a 0 -i 8 -k RTR
h -t 0.176532632 -s 6 -d 4 -p tcp -e 1540 -c 2 -a 0 -i 8 -k RTR
+ -t 0.190519132 -s 6 -d 4 -p tcp -e 1540 -c 2 -a 0 -i 9 -k RTR 
- -t 0.190519132 -s 6 -d 4 -p tcp -e 1540 -c 2 -a 0 -i 9 -k RTR
h -t 0.190519132 -s 6 -d 4 -p tcp -e 1540 -c 2 -a 0 -i 9 -k RTR
r -t 0.204384667 -s 4 -d 4 -p tcp -e 1540 -c 2 -a 0 -i 8 -k AGT
+ -t 0.204384667 -s 4 -d -1 -p ack -e 40 -c 2 -a 0 -i 16 -k AGT 
- -t 0.204384667 -s 4 -d -1 -p ack -e 40 -c 2 -a 0 -i 16 -k AGT
h -t 0.204384667 -s 4 -d -1 -p ack -e 40 -c 2 -a 0 -i 16 -k AGT
+ -t 0.204384667 -s 4 -d 6 -p ack -e 40 -c 2 -a 0 -i 16 -k RTR 
- -t 0.204384667 -s 4 -d 6 -p ack -e 40 -c 2 -a 0 -i 16 -k RTR
h -t 0.204384667 -s 4 -d 6 -p ack -e 40 -c 2 -a 0 -i 16 -k RTR
r -t 0.205647919 -s 9 -d -1 -p AODV -e 48 -c 2 -a 0 -i 0 -k RTR
r -t 0.205648209 -s 4 -d -1 -p AODV -e 48 -c 2 -a 0 -i 0 -k RTR
+ -t 0.207439744 -s 6 -d 0 -p ack -e 40 -c 2 -a 0 -i 16 -k RTR 
- -t 0.207439744 -s 6 -d 0 -p ack -e 40 -c 2 -a 0 -i 16 -k RTR
h -t 0.207439744 -s 6 -d 0 -p ack -e 40 -c 2 -a 0 -i 16 -k RTR
r -t 0.221305279 -s 4 -d 4 -p tcp -e 1540 -c 2 -a 0 -i 9 -k AGT
+ -t 0.221305279 -s 4 -d -1 -p ack -e 40 -c 2 -a 0 -i 17 -k AGT 
- -t 0.221305279 -s 4 -d -1 -p ack -e 40 -c 2 -a 0 -i 17 -k AGT
h -t 0.221305279 -s 4 -d -1 -p ack -e 40 -c 2 -a 0 -i 17 -k AGT
+ -t 0.221305279 -s 4 -d 6 -p ack -e 40 -c 2 -a 0 -i 17 -k RTR 
- -t 0.221305279 -s 4 -d 6 -p ack -e 40 -c 2 -a 0 -i 17 -k RTR
h -t 0.221305279 -s 4 -d 6 -p ack -e 40 -c 2 -a 0 -i 17 -k RTR
+ -t 0.223370814 -s 6 -d 0 -p ack -e 40 -c 2 -a 0 -i 17 -k RTR 
- -t 0.223370814 -s 6 -d 0 -p ack -e 40 -c 2 -a 0 -i 17 -k RTR
h -t 0.223370814 -s 6 -d 0 -p ack -e 40 -c 2 -a 0 -i 17 -k RTR
r -t 0.225256689 -s 0 -d 0 -p ack -e 40 -c 2 -a 0 -i 16 -k AGT
+ -t 0.225256689 -s 0 -d -1 -p tcp -e 1540 -c 2 -a 0 -i 18 -k AGT 
- -t 0.225256689 -s 0 -d -1 -p tcp -e 1540 -c 2 -a 0 -i 18 -k AGT
h -t 0.225256689 -s 0 -d -1 -p tcp -e 1540 -c 2 -a 0 -i 18 -k AGT
+ -t 0.225256689 -s 0 -d -1 -p tcp -e 1540 -c 2 -a 0 -i 19 -k AGT 
- -t 0.225256689 -s 0 -d -1 -p tcp -e 1540 -c 2 -a 0 -i 19 -k AGT
h -t 0.225256689 -s 0 -d -1 -p tcp -e 1540 -c 2 -a 0 -i 19 -k AGT
+ -t 0.225256689 -s 0 -d 6 -p tcp -e 1540 -c 2 -a 0 -i 18 -k RTR 
- -t 0.225256689 -s 0 -d 6 -p tcp -e 1540 -c 2 -a 0 -i 18 -k RTR
h -t 0.225256689 -s 0 -d 6 -p tcp -e 1540 -c 2 -a 0 -i 18 -k RTR
+ -t 0.225256689 -s 0 -d 6 -p tcp -e 1540 -c 2 -a 0 -i 19 -k RTR 
- -t 0.225256689 -s 0 -d 6 -p tcp -e 1540 -c 2 -a 0 -i 19 -k RTR
h -t 0.225256689 -s 0 -d 6 -p tcp -e 1540 -c 2 -a 0 -i 19 -k RTR
r -t 0.227103190 -s 0 -d 0 -p ack -e 40 -c 2 -a 0 -i 17 -k AGT
+ -t 0.227103190 -s 0 -d -1 -p tcp -e 1540 -c 2 -a 0 -i 20 -k AGT 
- -t 0.227103190 -s 0 -d -1 -p tcp -e 1540 -c 2 -a 0 -i 20 -k AGT
h -t 0.227103190 -s 0 -d -1 -p tcp -e 1540 -c 2 -a 0 -i 20 -k AGT
+ -t 0.227103190 -s 0 -d -1 -p tcp -e 1540 -c 2 -a 0 -i 21 -k AGT 
- -t 0.227103190 -s 0 -d -1 -p tcp -e 1540 -c 2 -a 0 -i 21 -k AGT
h -t 0.227103190 -s 0 -d -1 -p tcp -e 1540 -c 2 -a 0 -i 21 -k AGT
+ -t 0.227103190 -s 0 -d 6 -p tcp -e 1540 -c 2 -a 0 -i 20 -k RTR 
- -t 0.227103190 -s 0 -d 6 -p tcp -e 1540 -c 2 -a 0 -i 20 -k RTR
h -t 0.227103190 -s 0 -d 6 -p tcp -e 1540 -c 2 -a 0 -i 20 -k RTR
+ -t 0.227103190 -s 0 -d 6 -p tcp -e 1540 -c 2 -a 0 -i 21 -k RTR 
- -t 0.227103190 -s 0 -d 6 -p tcp -e 1540 -c 2 -a 0 -i 21 -k RTR
h -t 0.227103190 -s 0 -d 6 -p tcp -e 1540 -c 2 -a 0 -i 21 -k RTR
+ -t 0.241089065 -s 6 -d 4 -p tcp -e 1540 -c 2 -a 0 -i 12 -k RTR 
- -t 0.241089065 -s 6 -d 4 -p tcp -e 1540 -c 2 -a 0 -i 12 -k RTR
h -t 0.241089065 -s 6 -d 4 -p tcp -e 1540 -c 2 -a 0 -i 12 -k RTR
+ -t 0.255155566 -s 6 -d 4 -p tcp -e 1540 -c 2 -a 0 -i 13 -k RTR 
- -t 0.255155566 -s 6 -d 4 -p tcp -e 1540 -c 2 -a 0 -i 13 -k RTR
h -t 0.255155566 -s 6 -d 4 -p tcp -e 1540 -c 2 -a 0 -i 13 -k RTR
r -t 0.269081101 -s 4 -d 4 -p tcp -e 1540 -c 2 -a 0 -i 12 -k AGT
+ -t 0.269081101 -s 4 -d -1 -p ack -e 40 -c 2 -a 0 -i 22 -k AGT 
- -t 0.269081101 -s 4 -d -1 -p ack -e 40 -c 2 -a 0 -i 22 -k AGT
h -t 0.269081101 -s 4 -d -1 -p ack -e 40 -c 2 -a 0 -i 22 -k AGT
+ -t 0.269081101 -s 4 -d 6 -p ack -e 40 -c 2 -a 0 -i 22 -k RTR 
- -t 0.269081101 -s 4 -d 6 -p ack -e 40 -c 2 -a 0 -i 22 -k RTR
h -t 0.269081101 -s 4 -d 6 -p ack -e 40 -c 2 -a 0 -i 22 -k RTR
r -t 0.282947147 -s 4 -d 4 -p tcp -e 1540 -c 2 -a 0 -i 13 -k AGT
+ -t 0.282947147 -s 4 -d -1 -p ack -e 40 -c 2 -a 0 -i 23 -k AGT 
- -t 0.282947147 -s 4 -d -1 -p ack -e 40 -c 2 -a 0 -i 23 -k AGT
h -t 0.282947147 -s 4 -d -1 -p ack -e 40 -c 2 -a 0 -i 23 -k AGT
+ -t 0.282947147 -s 4 -d 6 -p ack -e 40 -c 2 -a 0 -i 23 -k RTR 
- -t 0.282947147 -s 4 -d 6 -p ack -e 40 -c 2 -a 0 -i 23 -k RTR
h -t 0.282947147 -s 4 -d 6 -p ack -e 40 -c 2 -a 0 -i 23 -k RTR
+ -t 0.285032682 -s 6 -d 0 -p ack -e 40 -c 2 -a 0 -i 22 -k RTR 
- -t 0.285032682 -s 6 -d 0 -p ack -e 40 -c 2 -a 0 -i 22 -k RTR
h -t 0.285032682 -s 6 -d 0 -p ack -e 40 -c 2 -a 0 -i 22 -k RTR
+ -t 0.298949158 -s 6 -d 4 -p tcp -e 1540 -c 2 -a 0 -i 14 -k RTR 
- -t 0.298949158 -s 6 -d 4 -p tcp -e 1540 -c 2 -a 0 -i 14 -k RTR
h -t 0.298949158 -s 6 -d 4 -p tcp -e 1540 -c 2 -a 0 -i 14 -k RTR
+ -t 0.300865180 -s 6 -d 0 -p ack -e 40 -c 2 -a 0 -i 23 -k RTR 
- -t 0.300865180 -s 6 -d 0 -p ack -e 40 -c 2 -a 0 -i 23 -k RTR
h -t 0.300865180 -s 6 -d 0 -p ack -e 40 -c 2 -a 0 -i 23 -k RTR
r -t 0.302751055 -s 0 -d 0 -p ack -e 40 -c 2 -a 0 -i 22 -k AGT
+ -t 0.302751055 -s 0 -d -1 -p tcp -e 1540 -c 2 -a 0 -i 24 -k AGT 
- -t 0.302751055 -s 0 -d -1 -p tcp -e 1540 -c 2 -a 0 -i 24 -k AGT
h -t 0.302751055 -s 0 -d -1 -p tcp -e 1540 -c 2 -a 0 -i 24 -k AGT
+ -t 0.302751055 -s 0 -d -1 -p tcp -e 1540 -c 2 -a 0 -i 25 -k AGT 
- -t 0.302751055 -s 0 -d -1 -p tcp -e 1540 -c 2 -a 0 -i 25 -k AGT
h -t 0.302751055 -s 0 -d -1 -p tcp -e 1540 -c 2 -a 0 -i 25 -k AGT
+ -t 0.302751055 -s 0 -d 6 -p tcp -e 1540 -c 2 -a 0 -i 24 -k RTR 
- -t 0.302751055 -s 0 -d 6 -p tcp -e 1540 -c 2 -a 0 -i 24 -k RTR
h -t 0.302751055 -s 0 -d 6 -p tcp -e 1540 -c 2 -a 0 -i 24 -k RTR
+ -t 0.302751055 -s 0 -d 6 -p tcp -e 1540 -c 2 -a 0 -i 25 -k RTR 
- -t 0.302751055 -s 0 -d 6 -p tcp -e 1540 -c 2 -a 0 -i 25 -k RTR
h -t 0.302751055 -s 0 -d 6 -p tcp -e 1540 -c 2 -a 0 -i 25 -k RTR
r -t 0.316657216 -s 4 -d 4 -p tcp -e 1540 -c 2 -a 0 -i 14 -k AGT
+ -t 0.316657216 -s 4 -d -1 -p ack -e 40 -c 2 -a 0 -i 26 -k AGT 
- -t 0.316657216 -s 4 -d -1 -p ack -e 40 -c 2 -a 0 -i 26 -k AGT
h -t 0.316657216 -s 4 -d -1 -p ack -e 40 -c 2 -a 0 -i 26 -k AGT
+ -t 0.316657216 -s 4 -d 6 -p ack -e 40 -c 2 -a 0 -i 26 -k RTR 
- -t 0.316657216 -s 4 -d 6 -p ack -e 40 -c 2 -a 0 -i 26 -k RTR
h -t 0.316657216 -s 4 -d 6 -p ack -e 40 -c 2 -a 0 -i 26 -k RTR
+ -t 0.318522751 -s 6 -d 0 -p ack -e 40 -c 2 -a 0 -i 26 -k RTR 
- -t 0.318522751 -s 6 -d 0 -p ack -e 40 -c 2 -a 0 -i 26 -k RTR
h -t 0.318522751 -s 6 -d 0 -p ack -e 40 -c 2 -a 0 -i 26 -k RTR
+ -t 0.332439226 -s 6 -d 4 -p tcp -e 1540 -c 2 -a 0 -i 15 -k RTR 
- -t 0.332439226 -s 6 -d 4 -p tcp -e 1540 -c 2 -a 0 -i 15 -k RTR
h -t 0.332439226 -s 6 -d 4 -p tcp -e 1540 -c 2 -a 0 -i 15 -k RTR
+ -t 0.346325727 -s 6 -d 4 -p tcp -e 1540 -c 2 -a 0 -i 18 -k RTR 
- -t 0.346325727 -s 6 -d 4 -p tcp -e 1540 -c 2 -a 0 -i 18 -k RTR
h -t 0.346325727 -s 6 -d 4 -p tcp -e 1540 -c 2 -a 0 -i 18 -k RTR
r -t 0.348251602 -s 0 -d 0 -p ack -e 40 -c 2 -a 0 -i 23 -k AGT
+ -t 0.348251602 -s 0 -d -1 -p tcp -e 1540 -c 2 -a 0 -i 27 -k AGT 
- -t 0.348251602 -s 0 -d -1 -p tcp -e 1540 -c 2 -a 0 -i 27 -k AGT
h -t 0.348251602 -s 0 -d -1 -p tcp -e 1540 -c 2 -a 0 -i 27 -k AGT
+ -t 0.348251602 -s 0 -d -1 -p tcp -e 1540 -c 2 -a 0 -i 28 -k AGT 
- -t 0.348251602 -s 0 -d -1 -p tcp -e 1540 -c 2 -a 0 -i 28 -k AGT
h -t 0.348251602 -s 0 -d -1 -p tcp -e 1540 -c 2 -a 0 -i 28 -k AGT
+ -t 0.348251602 -s 0 -d 6 -p tcp -e 1540 -c 2 -a 0 -i 27 -k RTR 
- -t 0.348251602 -s 0 -d 6 -p tcp -e 1540 -c 2 -a 0 -i 27 -k RTR
h -t 0.348251602 -s 0 -d 6 -p tcp -e 1540 -c 2 -a 0 -i 27 -k RTR
+ -t 0.348251602 -s 0 -d 6 -p tcp -e 1540 -c 2 -a 0 -i 28 -k RTR 
- -t 0.348251602 -s 0 -d 6 -p tcp -e 1540 -c 2 -a 0 -i 28 -k RTR
h -t 0.348251602 -s 0 -d 6 -p tcp -e 1540 -c 2 -a 0 -i 28 -k RTR
+ -t 0.362337478 -s 6 -d 4 -p tcp -e 1540 -c 2 -a 0 -i 19 -k RTR 
- -t 0.362337478 -s 6 -d 4 -p tcp -e 1540 -c 2 -a 0 -i 19 -k RTR
h -t 0.362337478 -s 6 -d 4 -p tcp -e 1540 -c 2 -a 0 -i 19 -k RTR
+ -t 0.376283978 -s 6 -d 4 -p tcp -e 1540 -c 2 -a 0 -i 20 -k RTR 
- -t 0.376283978 -s 6 -d 4 -p tcp -e 1540 -c 2 -a 0 -i 20 -k RTR
h -t 0.376283978 -s 6 -d 4 -p tcp -e 1540 -c 2 -a 0 -i 20 -k RTR
+ -t 0.390170479 -s 6 -d 4 -p tcp -e 1540 -c 2 -a 0 -i 21 -k RTR 
- -t 0.390170479 -s 6 -d 4 -p tcp -e 1540 -c 2 -a 0 -i 21 -k RTR
h -t 0.390170479 -s 6 -d 4 -p tcp -e 1540 -c 2 -a 0 -i 21 -k RTR
r -t 0.392176354 -s 0 -d 0 -p ack -e 40 -c 2 -a 0 -i 26 -k AGT
+ -t 0.392176354 -s 0 -d -1 -p tcp -e 1540 -c 2 -a 0 -i 29 -k AGT 
- -t 0.392176354 -s 0 -d -1 -p tcp -e 1540 -c 2 -a 0 -i 29 -k AGT
h -t 0.392176354 -s 0 -d -1 -p tcp -e 1540 -c 2 -a 0 -i 29 -k AGT
+ -t 0.392176354 -s 0 -d -1 -p tcp -e 1540 -c 2 -a 0 -i 30 -k AGT 
- -t 0.392176354 -s 0 -d -1 -p tcp -e 1540 -c 2 -a 0 -i 30 -k AGT
h -t 0.392176354 -s 0 -d -1 -p tcp -e 1540 -c 2 -a 0 -i 30 -k AGT
+ -t 0.392176354 -s 0 -d 6 -p tcp -e 1540 -c 2 -a 0 -i 29 -k RTR 
- -t 0.392176354 -s 0 -d 6 -p tcp -e 1540 -c 2 -a 0 -i 29 -k RTR
h -t 0.392176354 -s 0 -d 6 -p tcp -e 1540 -c 2 -a 0 -i 29 -k RTR
+ -t 0.392176354 -s 0 -d 6 -p tcp -e 1540 -c 2 -a 0 -i 30 -k RTR 
- -t 0.392176354 -s 0 -d 6 -p tcp -e 1540 -c 2 -a 0 -i 30 -k RTR
h -t 0.392176354 -s 0 -d 6 -p tcp -e 1540 -c 2 -a 0 -i 30 -k RTR
r -t 0.406122514 -s 4 -d 4 -p tcp -e 1540 -c 2 -a 0 -i 15 -k AGT
+ -t 0.406122514 -s 4 -d -1 -p ack -e 40 -c 2 -a 0 -i 31 -k AGT 
- -t 0.406122514 -s 4 -d -1 -p ack -e 40 -c 2 -a 0 -i 31 -k AGT
h -t 0.406122514 -s 4 -d -1 -p ack -e 40 -c 2 -a 0 -i 31 -k AGT
+ -t 0.406122514 -s 4 -d 6 -p ack -e 40 -c 2 -a 0 -i 31 -k RTR 
- -t 0.406122514 -s 4 -d 6 -p ack -e 40 -c 2 -a 0 -i 31 -k RTR
h -t 0.406122514 -s 4 -d 6 -p ack -e 40 -c 2 -a 0 -i 31 -k RTR
r -t 0.420388561 -s 4 -d 4 -p tcp -e 1540 -c 2 -a 0 -i 18 -k AGT
+ -t 0.420388561 -s 4 -d -1 -p ack -e 40 -c 2 -a 0 -i 32 -k AGT 
- -t 0.420388561 -s 4 -d -1 -p ack -e 40 -c 2 -a 0 -i 32 -k AGT
h -t 0.420388561 -s 4 -d -1 -p ack -e 40 -c 2 -a 0 -i 32 -k AGT
+ -t 0.420388561 -s 4 -d 6 -p ack -e 40 -c 2 -a 0 -i 32 -k RTR 
- -t 0.420388561 -s 4 -d 6 -p ack -e 40 -c 2 -a 0 -i 32 -k RTR
h -t 0.420388561 -s 4 -d 6 -p ack -e 40 -c 2 -a 0 -i 32 -k RTR
+ -t 0.422374096 -s 6 -d 0 -p ack -e 40 -c 2 -a 0 -i 31 -k RTR 
- -t 0.422374096 -s 6 -d 0 -p ack -e 40 -c 2 -a 0 -i 31 -k RTR
h -t 0.422374096 -s 6 -d 0 -p ack -e 40 -c 2 -a 0 -i 31 -k RTR
+ -t 0.436470572 -s 6 -d 4 -p tcp -e 1540 -c 2 -a 0 -i 24 -k RTR 
- -t 0.436470572 -s 6 -d 4 -p tcp -e 1540 -c 2 -a 0 -i 24 -k RTR
h -t 0.436470572 -s 6 -d 4 -p tcp -e 1540 -c 2 -a 0 -i 24 -k RTR
+ -t 0.438386594 -s 6 -d 0 -p ack -e 40 -c 2 -a 0 -i 32 -k RTR 
- -t 0.438386594 -s 6 -d 0 -p ack -e 40 -c 2 -a 0 -i 32 -k RTR
h -t 0.438386594 -s 6 -d 0 -p ack -e 40 -c 2 -a 0 -i 32 -k RTR
r -t 0.452272129 -s 4 -d 4 -p tcp -e 1540 -c 2 -a 0 -i 19 -k AGT
+ -t 0.452272129 -s 4 -d -1 -p ack -e 40 -c 2 -a 0 -i 33 -k AGT 
- -t 0.452272129 -s 4 -d -1 -p ack -e 40 -c 2 -a 0 -i 33 -k AGT
h -t 0.452272129 -s 4 -d -1 -p ack -e 40 -c 2 -a 0 -i 33 -k AGT
+ -t 0.452272129 -s 4 -d 6 -p ack -e 40 -c 2 -a 0 -i 33 -k RTR 
- -t 0.452272129 -s 4 -d 6 -p ack -e 40 -c 2 -a 0 -i 33 -k RTR
h -t 0.452272129 -s 4 -d 6 -p ack -e 40 -c 2 -a 0 -i 33 -k RTR
+ -t 0.454337664 -s 6 -d 0 -p ack -e 40 -c 2 -a 0 -i 33 -k RTR 
- -t 0.454337664 -s 6 -d 0 -p ack -e 40 -c 2 -a 0 -i 33 -k RTR
h -t 0.454337664 -s 6 -d 0 -p ack -e 40 -c 2 -a 0 -i 33 -k RTR
r -t 0.468263199 -s 4 -d 4 -p tcp -e 1540 -c 2 -a 0 -i 20 -k AGT
+ -t 0.468263199 -s 4 -d -1 -p ack -e 40 -c 2 -a 0 -i 34 -k AGT 
- -t 0.468263199 -s 4 -d -1 -p ack -e 40 -c 2 -a 0 -i 34 -k AGT
h -t 0.468263199 -s 4 -d -1 -p ack -e 40 -c 2 -a 0 -i 34 -k AGT
+ -t 0.468263199 -s 4 -d 6 -p ack -e 40 -c 2 -a 0 -i 34 -k RTR 
- -t 0.468263199 -s 4 -d 6 -p ack -e 40 -c 2 -a 0 -i 34 -k RTR
h -t 0.468263199 -s 4 -d 6 -p ack -e 40 -c 2 -a 0 -i 34 -k RTR
r -t 0.482309245 -s 4 -d 4 -p tcp -e 1540 -c 2 -a 0 -i 21 -k AGT
+ -t 0.482309245 -s 4 -d -1 -p ack -e 40 -c 2 -a 0 -i 35 -k AGT 
- -t 0.482309245 -s 4 -d -1 -p ack -e 40 -c 2 -a 0 -i 35 -k AGT
h -t 0.482309245 -s 4 -d -1 -p ack -e 40 -c 2 -a 0 -i 35 -k AGT
+ -t 0.482309245 -s 4 -d 6 -p ack -e 40 -c 2 -a 0 -i 35 -k RTR 
- -t 0.482309245 -s 4 -d 6 -p ack -e 40 -c 2 -a 0 -i 35 -k RTR
h -t 0.482309245 -s 4 -d 6 -p ack -e 40 -c 2 -a 0 -i 35 -k RTR
r -t 0.484315632 -s 0 -d 0 -p ack -e 40 -c 2 -a 0 -i 31 -k AGT
+ -t 0.484315632 -s 0 -d -1 -p tcp -e 1540 -c 2 -a 0 -i 36 -k AGT 
- -t 0.484315632 -s 0 -d -1 -p tcp -e 1540 -c 2 -a 0 -i 36 -k AGT
h -t 0.484315632 -s 0 -d -1 -p tcp -e 1540 -c 2 -a 0 -i 36 -k AGT
+ -t 0.484315632 -s 0 -d -1 -p tcp -e 1540 -c 2 -a 0 -i 37 -k AGT 
- -t 0.484315632 -s 0 -d -1 -p tcp -e 1540 -c 2 -a 0 -i 37 -k AGT
h -t 0.484315632 -s 0 -d -1 -p tcp -e 1540 -c 2 -a 0 -i 37 -k AGT
+ -t 0.484315632 -s 0 -d 6 -p tcp -e 1540 -c 2 -a 0 -i 36 -k RTR 
- -t 0.484315632 -s 0 -d 6 -p tcp -e 1540 -c 2 -a 0 -i 36 -k RTR
h -t 0.484315632 -s 0 -d 6 -p tcp -e 1540 -c 2 -a 0 -i 36 -k RTR
+ -t 0.484315632 -s 0 -d 6 -p tcp -e 1540 -c 2 -a 0 -i 37 -k RTR 
- -t 0.484315632 -s 0 -d 6 -p tcp -e 1540 -c 2 -a 0 -i 37 -k RTR
h -t 0.484315632 -s 0 -d 6 -p tcp -e 1540 -c 2 -a 0 -i 37 -k RTR
r -t 0.498301792 -s 4 -d 4 -p tcp -e 1540 -c 2 -a 0 -i 24 -k AGT
+ -t 0.498301792 -s 4 -d -1 -p ack -e 40 -c 2 -a 0 -i 38 -k AGT 
- -t 0.498301792 -s 4 -d -1 -p ack -e 40 -c 2 -a 0 -i 38 -k AGT
h -t 0.498301792 -s 4 -d -1 -p ack -e 40 -c 2 -a 0 -i 38 -k AGT
+ -t 0.498301792 -s 4 -d 6 -p ack -e 40 -c 2 -a 0 -i 38 -k RTR 
- -t 0.498301792 -s 4 -d 6 -p ack -e 40 -c 2 -a 0 -i 38 -k RTR
h -t 0.498301792 -s 4 -d 6 -p ack -e 40 -c 2 -a 0 -i 38 -k RTR
+ -t 0.500307327 -s 6 -d 0 -p ack -e 40 -c 2 -a 0 -i 34 -k RTR 
- -t 0.500307327 -s 6 -d 0 -p ack -e 40 -c 2 -a 0 -i 34 -k RTR
h -t 0.500307327 -s 6 -d 0 -p ack -e 40 -c 2 -a 0 -i 34 -k RTR
+ -t 0.514203803 -s 6 -d 4 -p tcp -e 1540 -c 2 -a 0 -i 25 -k RTR 
- -t 0.514203803 -s 6 -d 4 -p tcp -e 1540 -c 2 -a 0 -i 25 -k RTR
h -t 0.514203803 -s 6 -d 4 -p tcp -e 1540 -c 2 -a 0 -i 25 -k RTR
+ -t 0.528150304 -s 6 -d 4 -p tcp -e 1540 -c 2 -a 0 -i 27 -k RTR 
- -t 0.528150304 -s 6 -d 4 -p tcp -e 1540 -c 2 -a 0 -i 27 -k RTR
h -t 0.528150304 -s 6 -d 4 -p tcp -e 1540 -c 2 -a 0 -i 27 -k RTR
r -t 0.530056179 -s 0 -d 0 -p ack -e 40 -c 2 -a 0 -i 32 -k AGT
+ -t 0.530056179 -s 0 -d -1 -p tcp -e 1540 -c 2 -a 0 -i 39 -k AGT 
- -t 0.530056179 -s 0 -d -1 -p tcp -e 1540 -c 2 -a 0 -i 39 -k AGT
h -t 0.530056179 -s 0 -d -1 -p tcp -e 1540 -c 2 -a 0 -i 39 -k AGT
+ -t 0.530056179 -s 0 -d -1 -p tcp -e 1540 -c 2 -a 0 -i 40 -k AGT 
- -t 0.530056179 -s 0 -d -1 -p tcp -e 1540 -c 2 -a 0 -i 40 -k AGT
h -t 0.530056179 -s 0 -d -1 -p tcp -e 1540 -c 2 -a 0 -i 40 -k AGT
+ -t 0.530056179 -s 0 -d 6 -p tcp -e 1540 -c 2 -a 0 -i 39 -k RTR 
- -t 0.530056179 -s 0 -d 6 -p tcp -e 1540 -c 2 -a 0 -i 39 -k RTR
h -t 0.530056179 -s 0 -d 6 -p tcp -e 1540 -c 2 -a 0 -i 39 -k RTR
+ -t 0.530056179 -s 0 -d 6 -p tcp -e 1540 -c 2 -a 0 -i 40 -k RTR 
- -t 0.530056179 -s 0 -d 6 -p tcp -e 1540 -c 2 -a 0 -i 40 -k RTR
h -t 0.530056179 -s 0 -d 6 -p tcp -e 1540 -c 2 -a 0 -i 40 -k RTR
+ -t 0.543982055 -s 6 -d 4 -p tcp -e 1540 -c 2 -a 0 -i 28 -k RTR 
- -t 0.543982055 -s 6 -d 4 -p tcp -e 1540 -c 2 -a 0 -i 28 -k RTR
h -t 0.543982055 -s 6 -d 4 -p tcp -e 1540 -c 2 -a 0 -i 28 -k RTR
+ -t 0.557808555 -s 6 -d 4 -p tcp -e 1540 -c 2 -a 0 -i 29 -k RTR 
- -t 0.557808555 -s 6 -d 4 -p tcp -e 1540 -c 2 -a 0 -i 29 -k RTR
h -t 0.557808555 -s 6 -d 4 -p tcp -e 1540 -c 2 -a 0 -i 29 -k RTR
r -t 0.560681681 -s 0 -d 0 -p ack -e 40 -c 2 -a 0 -i 33 -k AGT
+ -t 0.560681681 -s 0 -d -1 -p tcp -e 1540 -c 2 -a 0 -i 41 -k AGT 
- -t 0.560681681 -s 0 -d -1 -p tcp -e 1540 -c 2 -a 0 -i 41 -k AGT
h -t 0.560681681 -s 0 -d -1 -p tcp -e 1540 -c 2 -a 0 -i 41 -k AGT
+ -t 0.560681681 -s 0 -d -1 -p tcp -e 1540 -c 2 -a 0 -i 42 -k AGT 
- -t 0.560681681 -s 0 -d -1 -p tcp -e 1540 -c 2 -a 0 -i 42 -k AGT
h -t 0.560681681 -s 0 -d -1 -p tcp -e 1540 -c 2 -a 0 -i 42 -k AGT
+ -t 0.560681681 -s 0 -d 6 -p tcp -e 1540 -c 2 -a 0 -i 41 -k RTR 
- -t 0.560681681 -s 0 -d 6 -p tcp -e 1540 -c 2 -a 0 -i 41 -k RTR
h -t 0.560681681 -s 0 -d 6 -p tcp -e 1540 -c 2 -a 0 -i 41 -k RTR
+ -t 0.560681681 -s 0 -d 6 -p tcp -e 1540 -c 2 -a 0 -i 42 -k RTR 
- -t 0.560681681 -s 0 -d 6 -p tcp -e 1540 -c 2 -a 0 -i 42 -k RTR
h -t 0.560681681 -s 0 -d 6 -p tcp -e 1540 -c 2 -a 0 -i 42 -k RTR
r -t 0.562928181 -s 0 -d 0 -p ack -e 40 -c 2 -a 0 -i 34 -k AGT
+ -t 0.562928181 -s 0 -d -1 -p tcp -e 1540 -c 2 -a 0 -i 43 -k AGT 
- -t 0.562928181 -s 0 -d -1 -p tcp -e 1540 -c 2 -a 0 -i 43 -k AGT
h -t 0.562928181 -s 0 -d -1 -p tcp -e 1540 -c 2 -a 0 -i 43 -k AGT
+ -t 0.562928181 -s 0 -d -1 -p tcp -e 1540 -c 2 -a 0 -i 44 -k AGT 
- -t 0.562928181 -s 0 -d -1 -p tcp -e 1540 -c 2 -a 0 -i 44 -k AGT
h -t 0.562928181 -s 0 -d -1 -p tcp -e 1540 -c 2 -a 0 -i 44 -k AGT
+ -t 0.562928181 -s 0 -d 6 -p tcp -e 1540 -c 2 -a 0 -i 43 -k RTR 
- -t 0.562928181 -s 0 -d 6 -p tcp -e 1540 -c 2 -a 0 -i 43 -k RTR
h -t 0.562928181 -s 0 -d 6 -p tcp -e 1540 -c 2 -a 0 -i 43 -k RTR
+ -t 0.562928181 -s 0 -d 6 -p tcp -e 1540 -c 2 -a 0 -i 44 -k RTR 
- -t 0.562928181 -s 0 -d 6 -p tcp -e 1540 -c 2 -a 0 -i 44 -k RTR
h -t 0.562928181 -s 0 -d 6 -p tcp -e 1540 -c 2 -a 0 -i 44 -k RTR
+ -t 0.577034057 -s 6 -d 4 -p tcp -e 1540 -c 2 -a 0 -i 30 -k RTR 
- -t 0.577034057 -s 6 -d 4 -p tcp -e 1540 -c 2 -a 0 -i 30 -k RTR
h -t 0.577034057 -s 6 -d 4 -p tcp -e 1540 -c 2 -a 0 -i 30 -k RTR
+ -t 0.579050079 -s 6 -d 0 -p ack -e 40 -c 2 -a 0 -i 35 -k RTR 
- -t 0.579050079 -s 6 -d 0 -p ack -e 40 -c 2 -a 0 -i 35 -k RTR
h -t 0.579050079 -s 6 -d 0 -p ack -e 40 -c 2 -a 0 -i 35 -k RTR
r -t 0.592915614 -s 4 -d 4 -p tcp -e 1540 -c 2 -a 0 -i 25 -k AGT
+ -t 0.592915614 -s 4 -d -1 -p ack -e 40 -c 2 -a 0 -i 45 -k AGT 
- -t 0.592915614 -s 4 -d -1 -p ack -e 40 -c 2 -a 0 -i 45 -k AGT
h -t 0.592915614 -s 4 -d -1 -p ack -e 40 -c 2 -a 0 -i 45 -k AGT
+ -t 0.592915614 -s 4 -d 6 -p ack -e 40 -c 2 -a 0 -i 45 -k RTR 
- -t 0.592915614 -s 4 -d 6 -p ack -e 40 -c 2 -a 0 -i 45 -k RTR
h -t 0.592915614 -s 4 -d 6 -p ack -e 40 -c 2 -a 0 -i 45 -k RTR
r -t 0.606761660 -s 4 -d 4 -p tcp -e 1540 -c 2 -a 0 -i 27 -k AGT