s 0.010000000 _0_ AGT  --- 0 tcp 40 [0 0 0 0] ------- [0:0 4:0 32 0] [0 0] 0 0
r 0.010000000 _0_ RTR  --- 0 tcp 40 [0 0 0 0] ------- [0:0 4:0 32 0] [0 0] 0 0
s 0.010000000 _0_ RTR  --- 0 AODV 48 [0 0 0 0] ------- [0:255 -1:255 30 0] [0x2 1 1 [4 0] [0 4]] (REQUEST)
r 0.010988625 _6_ RTR  --- 0 AODV 48 [0 ffffffff 0 800] ------- [0:255 -1:255 30 0] [0x2 1 1 [4 0] [0 4]] (REQUEST)
r 0.010988715 _5_ RTR  --- 0 AODV 48 [0 ffffffff 0 800] ------- [0:255 -1:255 30 0] [0x2 1 1 [4 0] [0 4]] (REQUEST)
s 0.011869852 _6_ RTR  --- 0 AODV 48 [0 ffffffff 0 800] ------- [6:255 -1:255 29 0] [0x2 2 1 [4 0] [0 4]] (REQUEST)
r 0.012818267 _7_ RTR  --- 0 AODV 48 [0 ffffffff 6 800] ------- [6:255 -1:255 29 0] [0x2 2 1 [4 0] [0 4]] (REQUEST)
r 0.012818364 _4_ RTR  --- 0 AODV 48 [0 ffffffff 6 800] ------- [6:255 -1:255 29 0] [0x2 2 1 [4 0] [0 4]] (REQUEST)
s 0.012818364 _4_ RTR  --- 0 AODV 44 [0 0 0 0] ------- [4:255 0:255 30 6] [0x4 1 [4 4] 10.000000] (REPLY)
r 0.012818477 _0_ RTR  --- 0 AODV 48 [0 ffffffff 6 800] ------- [6:255 -1:255 29 0] [0x2 2 1 [4 0] [0 4]] (REQUEST)
s 0.015400449 _5_ RTR  --- 0 AODV 48 [0 ffffffff 0 800] ------- [5:255 -1:255 29 0] [0x2 2 1 [4 0] [0 4]] (REQUEST)
r 0.017464945 _6_ RTR  --- 0 AODV 44 [13a 6 4 800] ------- [4:255 0:255 30 6] [0x4 1 [4 4] 10.000000] (REPLY)
f 0.017464945 _6_ RTR  --- 0 AODV 44 [13a 6 4 800] ------- [4:255 0:255 29 0] [0x4 2 [4 4] 10.000000] (REPLY)
s 0.020983028 _7_ RTR  --- 0 AODV 48 [0 ffffffff 6 800] ------- [7:255 -1:255 28 0] [0x2 3 1 [4 0] [0 4]] (REQUEST)
r 0.022696321 _0_ RTR  --- 0 AODV 44 [13a 0 6 800] ------- [4:255 0:255 29 0] [0x4 2 [4 4] 10.000000] (REPLY)
s 0.022696321 _0_ RTR  --- 0 tcp 40 [0 0 0 0] ------- [0:0 4:0 30 6] [0 0] 0 0
r 0.024039471 _0_ RTR  --- 0 AODV 48 [0 ffffffff 5 800] ------- [5:255 -1:255 29 0] [0x2 2 1 [4 0] [0 4]] (REQUEST)
r 0.025811347 _6_ RTR  --- 0 tcp 40 [13a 6 0 800] ------- [0:0 4:0 30 6] [0 0] 1 0
f 0.025811347 _6_ RTR  --- 0 tcp 40 [13a 6 0 800] ------- [0:0 4:0 29 4] [0 0] 1 0
r 0.027174143 _6_ RTR  --- 0 AODV 48 [0 ffffffff 7 800] ------- [7:255 -1:255 28 0] [0x2 3 1 [4 0] [0 4]] (REQUEST)
r 0.027174158 _4_ RTR  --- 0 AODV 48 [0 ffffffff 7 800] ------- [7:255 -1:255 28 0] [0x2 3 1 [4 0] [0 4]] (REQUEST)
r 0.027174459 _9_ RTR  --- 0 AODV 48 [0 ffffffff 7 800] ------- [7:255 -1:255 28 0] [0x2 3 1 [4 0] [0 4]] (REQUEST)
r 0.028765678 _4_ AGT  --- 0 tcp 40 [13a 4 6 800] ------- [0:0 4:0 29 4] [0 0] 2 0
s 0.028765678 _4_ AGT  --- 1 ack 40 [0 0 0 0] ------- [4:0 0:0 32 0] [0 0] 0 0
r 0.028765678 _4_ RTR  --- 1 ack 40 [0 0 0 0] ------- [4:0 0:0 32 0] [0 0] 0 0
s 0.028765678 _4_ RTR  --- 1 ack 40 [0 0 0 0] ------- [4:0 0:0 30 6] [0 0] 0 0
r 0.030831213 _6_ RTR  --- 1 ack 40 [13a 6 4 800] ------- [4:0 0:0 30 6] [0 0] 1 0
f 0.030831213 _6_ RTR  --- 1 ack 40 [13a 6 4 800] ------- [4:0 0:0 29 0] [0 0] 1 0
s 0.031261316 _9_ RTR  --- 0 AODV 48 [0 ffffffff 7 800] ------- [9:255 -1:255 27 0] [0x2 4 1 [4 0] [0 4]] (REQUEST)
r 0.032877089 _0_ AGT  --- 1 ack 40 [13a 0 6 800] ------- [4:0 0:0 29 0] [0 0] 2 0
s 0.032877089 _0_ AGT  --- 2 tcp 1540 [0 0 0 0] ------- [0:0 4:0 32 0] [1 0] 0 0
r 0.032877089 _0_ RTR  --- 2 tcp 1540 [0 0 0 0] ------- [0:0 4:0 32 0] [1 0] 0 0
s 0.032877089 _0_ AGT  --- 3 tcp 1540 [0 0 0 0] ------- [0:0 4:0 32 0] [2 0] 0 0
r 0.032877089 _0_ RTR  --- 3 tcp 1540 [0 0 0 0] ------- [0:0 4:0 32 0] [2 0] 0 0
s 0.032877089 _0_ RTR  --- 2 tcp 1540 [0 0 0 0] ------- [0:0 4:0 30 6] [1 0] 0 0
s 0.032877089 _0_ RTR  --- 3 tcp 1540 [0 0 0 0] ------- [0:0 4:0 30 6] [2 0] 0 0
r 0.047102964 _6_ RTR  --- 2 tcp 1540 [13a 6 0 800] ------- [0:0 4:0 30 6] [1 0] 1 0
f 0.047102964 _6_ RTR  --- 2 tcp 1540 [13a 6 0 800] ------- [0:0 4:0 29 4] [1 0] 1 0
r 0.061088499 _4_ AGT  --- 2 tcp 1540 [13a 4 6 800] ------- [0:0 4:0 29 4] [1 0] 2 0
s 0.061088499 _4_ AGT  --- 4 ack 40 [0 0 0 0] ------- [4:0 0:0 32 0] [1 0] 0 0
r 0.061088499 _4_ RTR  --- 4 ack 40 [0 0 0 0] ------- [4:0 0:0 32 0] [1 0] 0 0
s 0.061088499 _4_ RTR  --- 4 ack 40 [0 0 0 0] ------- [4:0 0:0 30 6] [1 0] 0 0
r 0.062954034 _6_ RTR  --- 4 ack 40 [13a 6 4 800] ------- [4:0 0:0 30 6] [1 0] 1 0
f 0.062954034 _6_ RTR  --- 4 ack 40 [13a 6 4 800] ------- [4:0 0:0 29 0] [1 0] 1 0
r 0.077030510 _6_ RTR  --- 3 tcp 1540 [13a 6 0 800] ------- [0:0 4:0 30 6] [2 0] 1 0
f 0.077030510 _6_ RTR  --- 3 tcp 1540 [13a 6 0 800] ------- [0:0 4:0 29 4] [2 0] 1 0
r 0.078896385 _0_ AGT  --- 4 ack 40 [13a 0 6 800] ------- [4:0 0:0 29 0] [1 0] 2 0
s 0.078896385 _0_ AGT  --- 5 tcp 1540 [0 0 0 0] ------- [0:0 4:0 32 0] [3 0] 0 0
r 0.078896385 _0_ RTR  --- 5 tcp 1540 [0 0 0 0] ------- [0:0 4:0 32 0] [3 0] 0 0
s 0.078896385 _0_ AGT  --- 6 tcp 1540 [0 0 0 0] ------- [0:0 4:0 32 0] [4 0] 0 0
r 0.078896385 _0_ RTR  --- 6 tcp 1540 [0 0 0 0] ------- [0:0 4:0 32 0] [4 0] 0 0
s 0.078896385 _0_ RTR  --- 5 tcp 1540 [0 0 0 0] ------- [0:0 4:0 30 6] [3 0] 0 0
s 0.078896385 _0_ RTR  --- 6 tcp 1540 [0 0 0 0] ------- [0:0 4:0 30 6] [4 0] 0 0
r 0.092802545 _4_ AGT  --- 3 tcp 1540 [13a 4 6 800] ------- [0:0 4:0 29 4] [2 0] 2 0
s 0.092802545 _4_ AGT  --- 7 ack 40 [0 0 0 0] ------- [4:0 0:0 32 0] [2 0] 0 0
r 0.092802545 _4_ RTR  --- 7 ack 40 [0 0 0 0] ------- [4:0 0:0 32 0] [2 0] 0 0
s 0.092802545 _4_ RTR  --- 7 ack 40 [0 0 0 0] ------- [4:0 0:0 30 6] [2 0] 0 0
r 0.094748080 _6_ RTR  --- 7 ack 40 [13a 6 4 800] ------- [4:0 0:0 30 6] [2 0] 1 0
f 0.094748080 _6_ RTR  --- 7 ack 40 [13a 6 4 800] ------- [4:0 0:0 29 0] [2 0] 1 0
r 0.108644556 _6_ RTR  --- 5 tcp 1540 [13a 6 0 800] ------- [0:0 4:0 30 6] [3 0] 1 0
f 0.108644556 _6_ RTR  --- 5 tcp 1540 [13a 6 0 800] ------- [0:0 4:0 29 4] [3 0] 1 0
r 0.123617057 _6_ RTR  --- 6 tcp 1540 [13a 6 0 800] ------- [0:0 4:0 30 6] [4 0] 1 0
f 0.123617057 _6_ RTR  --- 6 tcp 1540 [13a 6 0 800] ------- [0:0 4:0 29 4] [4 0] 1 0
r 0.125722932 _0_ AGT  --- 7 ack 40 [13a 0 6 800] ------- [4:0 0:0 29 0] [2 0] 2 0
s 0.125722932 _0_ AGT  --- 8 tcp 1540 [0 0 0 0] ------- [0:0 4:0 32 0] [5 0] 0 0
r 0.125722932 _0_ RTR  --- 8 tcp 1540 [0 0 0 0] ------- [0:0 4:0 32 0] [5 0] 0 0
s 0.125722932 _0_ AGT  --- 9 tcp 1540 [0 0 0 0] ------- [0:0 4:0 32 0] [6 0] 0 0
r 0.125722932 _0_ RTR  --- 9 tcp 1540 [0 0 0 0] ------- [0:0 4:0 32 0] [6 0] 0 0
s 0.125722932 _0_ RTR  --- 8 tcp 1540 [0 0 0 0] ------- [0:0 4:0 30 6] [5 0] 0 0
s 0.125722932 _0_ RTR  --- 9 tcp 1540 [0 0 0 0] ------- [0:0 4:0 30 6] [6 0] 0 0
r 0.139609092 _4_ AGT  --- 5 tcp 1540 [13a 4 6 800] ------- [0:0 4:0 29 4] [3 0] 2 0
s 0.139609092 _4_ AGT  --- 10 ack 40 [0 0 0 0] ------- [4:0 0:0 32 0] [3 0] 0 0
r 0.139609092 _4_ RTR  --- 10 ack 40 [0 0 0 0] ------- [4:0 0:0 32 0] [3 0] 0 0
s 0.139609092 _4_ RTR  --- 10 ack 40 [0 0 0 0] ------- [4:0 0:0 30 6] [3 0] 0 0
r 0.141554627 _6_ RTR  --- 10 ack 40 [13a 6 4 800] ------- [4:0 0:0 30 6] [3 0] 1 0
f 0.141554627 _6_ RTR  --- 10 ack 40 [13a 6 4 800] ------- [4:0 0:0 29 0] [3 0] 1 0
r 0.155600162 _4_ AGT  --- 6 tcp 1540 [13a 4 6 800] ------- [0:0 4:0 29 4] [4 0] 2 0
s 0.155600162 _4_ AGT  --- 11 ack 40 [0 0 0 0] ------- [4:0 0:0 32 0] [4 0] 0 0
r 0.155600162 _4_ RTR  --- 11 ack 40 [0 0 0 0] ------- [4:0 0:0 32 0] [4 0] 0 0
s 0.155600162 _4_ RTR  --- 11 ack 40 [0 0 0 0] ------- [4:0 0:0 30 6] [4 0] 0 0
r 0.157022845 _4_ RTR  --- 0 AODV 48 [0 ffffffff 9 800] ------- [9:255 -1:255 27 0] [0x2 4 1 [4 0] [0 4]] (REQUEST)
r 0.157023016 _3_ RTR  --- 0 AODV 48 [0 ffffffff 9 800] ------- [9:255 -1:255 27 0] [0x2 4 1 [4 0] [0 4]] (REQUEST)
r 0.157023232 _7_ RTR  --- 0 AODV 48 [0 ffffffff 9 800] ------- [9:255 -1:255 27 0] [0x2 4 1 [4 0] [0 4]] (REQUEST)
r 0.158634380 _6_ RTR  --- 11 ack 40 [13a 6 4 800] ------- [4:0 0:0 30 6] [4 0] 1 0
f 0.158634380 _6_ RTR  --- 11 ack 40 [13a 6 4 800] ------- [4:0 0:0 29 0] [4 0] 1 0
s 0.159592953 _3_ RTR  --- 0 AODV 48 [0 ffffffff 9 800] ------- [3:255 -1:255 26 0] [0x2 5 1 [4 0] [0 4]] (REQUEST)
r 0.160540256 _0_ AGT  --- 10 ack 40 [13a 0 6 800] ------- [4:0 0:0 29 0] [3 0] 2 0
s 0.160540256 _0_ AGT  --- 12 tcp 1540 [0 0 0 0] ------- [0:0 4:0 32 0] [7 0] 0 0
r 0.160540256 _0_ RTR  --- 12 tcp 1540 [0 0 0 0] ------- [0:0 4:0 32 0] [7 0] 0 0
s 0.160540256 _0_ AGT  --- 13 tcp 1540 [0 0 0 0] ------- [0:0 4:0 32 0] [8 0] 0 0
r 0.160540256 _0_ RTR  --- 13 tcp 1540 [0 0 0 0] ------- [0:0 4:0 32 0] [8 0] 0 0
s 0.160540256 _0_ RTR  --- 12 tcp 1540 [0 0 0 0] ------- [0:0 4:0 30 6] [7 0] 0 0
s 0.160540256 _0_ RTR  --- 13 tcp 1540 [0 0 0 0] ------- [0:0 4:0 30 6] [8 0] 0 0
r 0.162586756 _0_ AGT  --- 11 ack 40 [13a 0 6 800] ------- [4:0 0:0 29 0] [4 0] 2 0
s 0.162586756 _0_ AGT  --- 14 tcp 1540 [0 0 0 0] ------- [0:0 4:0 32 0] [9 0] 0 0
r 0.162586756 _0_ RTR  --- 14 tcp 1540 [0 0 0 0] ------- [0:0 4:0 32 0] [9 0] 0 0
s 0.162586756 _0_ AGT  --- 15 tcp 1540 [0 0 0 0] ------- [0:0 4:0 32 0] [10 0] 0 0
r 0.162586756 _0_ RTR  --- 15 tcp 1540 [0 0 0 0] ------- [0:0 4:0 32 0] [10 0] 0 0
s 0.162586756 _0_ RTR  --- 14 tcp 1540 [0 0 0 0] ------- [0:0 4:0 30 6] [9 0] 0 0
s 0.162586756 _0_ RTR  --- 15 tcp 1540 [0 0 0 0] ------- [0:0 4:0 30 6] [10 0] 0 0
r 0.176532632 _6_ RTR  --- 8 tcp 1540 [13a 6 0 800] ------- [0:0 4:0 30 6] [5 0] 1 0
f 0.176532632 _6_ RTR  --- 8 tcp 1540 [13a 6 0 800] ------- [0:0 4:0 29 4] [5 0] 1 0
r 0.190519132 _6_ RTR  --- 9 tcp 1540 [13a 6 0 800] ------- [0:0 4:0 30 6] [6 0] 1 0
f 0.190519132 _6_ RTR  --- 9 tcp 1540 [13a 6 0 800] ------- [0:0 4:0 29 4] [6 0] 1 0
r 0.204384667 _4_ AGT  --- 8 tcp 1540 [13a 4 6 800] ------- [0:0 4:0 29 4] [5 0] 2 0
s 0.204384667 _4_ AGT  --- 16 ack 40 [0 0 0 0] ------- [4:0 0:0 32 0] [5 0] 0 0
r 0.204384667 _4_ RTR  --- 16 ack 40 [0 0 0 0] ------- [4:0 0:0 32 0] [5 0] 0 0
s 0.204384667 _4_ RTR  --- 16 ack 40 [0 0 0 0] ------- [4:0 0:0 30 6] [5 0] 0 0
r 0.205647919 _9_ RTR  --- 0 AODV 48 [0 ffffffff 3 800] ------- [3:255 -1:255 26 0] [0x2 5 1 [4 0] [0 4]] (REQUEST)
r 0.205648209 _4_ RTR  --- 0 AODV 48 [0 ffffffff 3 800] ------- [3:255 -1:255 26 0] [0x2 5 1 [4 0] [0 4]] (REQUEST)
r 0.207439744 _6_ RTR  --- 16 ack 40 [13a 6 4 800] ------- [4:0 0:0 30 6] [5 0] 1 0
f 0.207439744 _6_ RTR  --- 16 ack 40 [13a 6 4 800] ------- [4:0 0:0 29 0] [5 0] 1 0
r 0.221305279 _4_ AGT  --- 9 tcp 1540 [13a 4 6 800] ------- [0:0 4:0 29 4] [6 0] 2 0
s 0.221305279 _4_ AGT  --- 17 ack 40 [0 0 0 0] ------- [4:0 0:0 32 0] [6 0] 0 0
r 0.221305279 _4_ RTR  --- 17 ack 40 [0 0 0 0] ------- [4:0 0:0 32 0] [6 0] 0 0
s 0.221305279 _4_ RTR  --- 17 ack 40 [0 0 0 0] ------- [4:0 0:0 30 6] [6 0] 0 0
r 0.223370814 _6_ RTR  --- 17 ack 40 [13a 6 4 800] ------- [4:0 0:0 30 6] [6 0] 1 0
f 0.223370814 _6_ RTR  --- 17 ack 40 [13a 6 4 800] ------- [4:0 0:0 29 0] [6 0] 1 0
r 0.225256689 _0_ AGT  --- 16 ack 40 [13a 0 6 800] ------- [4:0 0:0 29 0] [5 0] 2 0
s 0.225256689 _0_ AGT  --- 18 tcp 1540 [0 0 0 0] ------- [0:0 4:0 32 0] [11 0] 0 0
r 0.225256689 _0_ RTR  --- 18 tcp 1540 [0 0 0 0] ------- [0:0 4:0 32 0] [11 0] 0 0
s 0.225256689 _0_ AGT  --- 19 tcp 1540 [0 0 0 0] ------- [0:0 4:0 32 0] [12 0] 0 0
r 0.225256689 _0_ RTR  --- 19 tcp 1540 [0 0 0 0] ------- [0:0 4:0 32 0] [12 0] 0 0
s 0.225256689 _0_ RTR  --- 18 tcp 1540 [0 0 0 0] ------- [0:0 4:0 30 6] [11 0] 0 0
s 0.225256689 _0_ RTR  --- 19 tcp 1540 [0 0 0 0] ------- [0:0 4:0 30 6] [12 0] 0 0
r 0.227103190 _0_ AGT  --- 17 ack 40 [13a 0 6 800] ------- [4:0 0:0 29 0] [6 0] 2 0
s 0.227103190 _0_ AGT  --- 20 tcp 1540 [0 0 0 0] ------- [0:0 4:0 32 0] [13 0] 0 0
r 0.227103190 _0_ RTR  --- 20 tcp 1540 [0 0 0 0] ------- [0:0 4:0 32 0] [13 0] 0 0
s 0.227103190 _0_ AGT  --- 21 tcp 1540 [0 0 0 0] ------- [0:0 4:0 32 0] [14 0] 0 0
r 0.227103190 _0_ RTR  --- 21 tcp 1540 [0 0 0 0] ------- [0:0 4:0 32 0] [14 0] 0 0
s 0.227103190 _0_ RTR  --- 20 tcp 1540 [0 0 0 0] ------- [0:0 4:0 30 6] [13 0] 0 0
s 0.227103190 _0_ RTR  --- 21 tcp 1540 [0 0 0 0] ------- [0:0 4:0 30 6] [14 0] 0 0
r 0.241089065 _6_ RTR  --- 12 tcp 1540 [13a 6 0 800] ------- [0:0 4:0 30 6] [7 0] 1 0
f 0.241089065 _6_ RTR  --- 12 tcp 1540 [13a 6 0 800] ------- [0:0 4:0 29 4] [7 0] 1 0
r 0.255155566 _6_ RTR  --- 13 tcp 1540 [13a 6 0 800] ------- [0:0 4:0 30 6] [8 0] 1 0
f 0.255155566 _6_ RTR  --- 13 tcp 1540 [13a 6 0 800] ------- [0:0 4:0 29 4] [8 0] 1 0
r 0.269081101 _4_ AGT  --- 12 tcp 1540 [13a 4 6 800] ------- [0:0 4:0 29 4] [7 0] 2 0
s 0.269081101 _4_ AGT  --- 22 ack 40 [0 0 0 0] ------- [4:0 0:0 32 0] [7 0] 0 0
r 0.269081101 _4_ RTR  --- 22 ack 40 [0 0 0 0] ------- [4:0 0:0 32 0] [7 0] 0 0
s 0.269081101 _4_ RTR  --- 22 ack 40 [0 0 0 0] ------- [4:0 0:0 30 6] [7 0] 0 0
r 0.282947147 _4_ AGT  --- 13 tcp 1540 [13a 4 6 800] ------- [0:0 4:0 29 4] [8 0] 2 0
s 0.282947147 _4_ AGT  --- 23 ack 40 [0 0 0 0] ------- [4:0 0:0 32 0] [8 0] 0 0
r 0.282947147 _4_ RTR  --- 23 ack 40 [0 0 0 0] ------- [4:0 0:0 32 0] [8 0] 0 0
s 0.282947147 _4_ RTR  --- 23 ack 40 [0 0 0 0] ------- [4:0 0:0 30 6] [8 0] 0 0
r 0.285032682 _6_ RTR  --- 22 ack 40 [13a 6 4 800] ------- [4:0 0:0 30 6] [7 0] 1 0
f 0.285032682 _6_ RTR  --- 22 ack 40 [13a 6 4 800] ------- [4:0 0:0 29 0] [7 0] 1 0
r 0.298949158 _6_ RTR  --- 14 tcp 1540 [13a 6 0 800] ------- [0:0 4:0 30 6] [9 0] 1 0
f 0.298949158 _6_ RTR  --- 14 tcp 1540 [13a 6 0 800] ------- [0:0 4:0 29 4] [9 0] 1 0
r 0.300865180 _6_ RTR  --- 23 ack 40 [13a 6 4 800] ------- [4:0 0:0 30 6] [8 0] 1 0
f 0.300865180 _6_ RTR  --- 23 ack 40 [13a 6 4 800] ------- [4:0 0:0 29 0] [8 0] 1 0
r 0.302751055 _0_ AGT  --- 22 ack 40 [13a 0 6 800] ------- [4:0 0:0 29 0] [7 0] 2 0
s 0.302751055 _0_ AGT  --- 24 tcp 1540 [0 0 0 0] ------- [0:0 4:0 32 0] [15 0] 0 0
r 0.302751055 _0_ RTR  --- 24 tcp 1540 [0 0 0 0] ------- [0:0 4:0 32 0] [15 0] 0 0
s 0.302751055 _0_ AGT  --- 25 tcp 1540 [0 0 0 0] ------- [0:0 4:0 32 0] [16 0] 0 0
r 0.302751055 _0_ RTR  --- 25 tcp 1540 [0 0 0 0] ------- [0:0 4:0 32 0] [16 0] 0 0
s 0.302751055 _0_ RTR  --- 24 tcp 1540 [0 0 0 0] ------- [0:0 4:0 30 6] [15 0] 0 0
s 0.302751055 _0_ RTR  --- 25 tcp 1540 [0 0 0 0] ------- [0:0 4:0 30 6] [16 0] 0 0
r 0.316657216 _4_ AGT  --- 14 tcp 1540 [13a 4 6 800] ------- [0:0 4:0 29 4] [9 0] 2 0
s 0.316657216 _4_ AGT  --- 26 ack 40 [0 0 0 0] ------- [4:0 0:0 32 0] [9 0] 0 0
r 0.316657216 _4_ RTR  --- 26 ack 40 [0 0 0 0] ------- [4:0 0:0 32 0] [9 0] 0 0
s 0.316657216 _4_ RTR  --- 26 ack 40 [0 0 0 0] ------- [4:0 0:0 30 6] [9 0] 0 0
r 0.318522751 _6_ RTR  --- 26 ack 40 [13a 6 4 800] ------- [4:0 0:0 30 6] [9 0] 1 0
f 0.318522751 _6_ RTR  --- 26 ack 40 [13a 6 4 800] ------- [4:0 0:0 29 0] [9 0] 1 0
r 0.332439226 _6_ RTR  --- 15 tcp 1540 [13a 6 0 800] ------- [0:0 4:0 30 6] [10 0] 1 0
f 0.332439226 _6_ RTR  --- 15 tcp 1540 [13a 6 0 800] ------- [0:0 4:0 29 4] [10 0] 1 0
r 0.346325727 _6_ RTR  --- 18 tcp 1540 [13a 6 0 800] ------- [0:0 4:0 30 6] [11 0] 1 0
f 0.346325727 _6_ RTR  --- 18 tcp 1540 [13a 6 0 800] ------- [0:0 4:0 29 4] [11 0] 1 0
r 0.348251602 _0_ AGT  --- 23 ack 40 [13a 0 6 800] ------- [4:0 0:0 29 0] [8 0] 2 0
s 0.348251602 _0_ AGT  --- 27 tcp 1540 [0 0 0 0] ------- [0:0 4:0 32 0] [17 0] 0 0
r 0.348251602 _0_ RTR  --- 27 tcp 1540 [0 0 0 0] ------- [0:0 4:0 32 0] [17 0] 0 0
s 0.348251602 _0_ AGT  --- 28 tcp 1540 [0 0 0 0] ------- [0:0 4:0 32 0] [18 0] 0 0
r 0.348251602 _0_ RTR  --- 28 tcp 1540 [0 0 0 0] ------- [0:0 4:0 32 0] [18 0] 0 0
s 0.348251602 _0_ RTR  --- 27 tcp 1540 [0 0 0 0] ------- [0:0 4:0 30 6] [17 0] 0 0
s 0.348251602 _0_ RTR  --- 28 tcp 1540 [0 0 0 0] ------- [0:0 4:0 30 6] [18 0] 0 0
r 0.362337478 _6_ RTR  --- 19 tcp 1540 [13a 6 0 800] ------- [0:0 4:0 30 6] [12 0] 1 0
f 0.362337478 _6_ RTR  --- 19 tcp 1540 [13a 6 0 800] ------- [0:0 4:0 29 4] [12 0] 1 0
r 0.376283978 _6_ RTR  --- 20 tcp 1540 [13a 6 0 800] ------- [0:0 4:0 30 6] [13 0] 1 0
f 0.376283978 _6_ RTR  --- 20 tcp 1540 [13a 6 0 800] ------- [0:0 4:0 29 4] [13 0] 1 0
r 0.390170479 _6_ RTR  --- 21 tcp 1540 [13a 6 0 800] ------- [0:0 4:0 30 6] [14 0] 1 0
f 0.390170479 _6_ RTR  --- 21 tcp 1540 [13a 6 0 800] ------- [0:0 4:0 29 4] [14 0] 1 0
r 0.392176354 _0_ AGT  --- 26 ack 40 [13a 0 6 800] ------- [4:0 0:0 29 0] [9 0] 2 0
s 0.392176354 _0_ AGT  --- 29 tcp 1540 [0 0 0 0] ------- [0:0 4:0 32 0] [19 0] 0 0
r 0.392176354 _0_ RTR  --- 29 tcp 1540 [0 0 0 0] ------- [0:0 4:0 32 0] [19 0] 0 0
s 0.392176354 _0_ AGT  --- 30 tcp 1540 [0 0 0 0] ------- [0:0 4:0 32 0] [20 0] 0 0
r 0.392176354 _0_ RTR  --- 30 tcp 1540 [0 0 0 0] ------- [0:0 4:0 32 0] [20 0] 0 0
s 0.392176354 _0_ RTR  --- 29 tcp 1540 [0 0 0 0] ------- [0:0 4:0 30 6] [19 0] 0 0
s 0.392176354 _0_ RTR  --- 30 tcp 1540 [0 0 0 0] ------- [0:0 4:0 30 6] [20 0] 0 0
r 0.406122514 _4_ AGT  --- 15 tcp 1540 [13a 4 6 800] ------- [0:0 4:0 29 4] [10 0] 2 0
s 0.406122514 _4_ AGT  --- 31 ack 40 [0 0 0 0] ------- [4:0 0:0 32 0] [10 0] 0 0
r 0.406122514 _4_ RTR  --- 31 ack 40 [0 0 0 0] ------- [4:0 0:0 32 0] [10 0] 0 0
s 0.406122514 _4_ RTR  --- 31 ack 40 [0 0 0 0] ------- [4:0 0:0 30 6] [10 0] 0 0
r 0.420388561 _4_ AGT  --- 18 tcp 1540 [13a 4 6 800] ------- [0:0 4:0 29 4] [11 0] 2 0
s 0.420388561 _4_ AGT  --- 32 ack 40 [0 0 0 0] ------- [4:0 0:0 32 0] [11 0] 0 0
r 0.420388561 _4_ RTR  --- 32 ack 40 [0 0 0 0] ------- [4:0 0:0 32 0] [11 0] 0 0
s 0.420388561 _4_ RTR  --- 32 ack 40 [0 0 0 0] ------- [4:0 0:0 30 6] [11 0] 0 0
r 0.422374096 _6_ RTR  --- 31 ack 40 [13a 6 4 800] ------- [4:0 0:0 30 6] [10 0] 1 0
f 0.422374096 _6_ RTR  --- 31 ack 40 [13a 6 4 800] ------- [4:0 0:0 29 0] [10 0] 1 0
r 0.436470572 _6_ RTR  --- 24 tcp 1540 [13a 6 0 800] ------- [0:0 4:0 30 6] [15 0] 1 0
f 0.436470572 _6_ RTR  --- 24 tcp 1540 [13a 6 0 800] ------- [0:0 4:0 29 4] [15 0] 1 0
r 0.438386594 _6_ RTR  --- 32 ack 40 [13a 6 4 800] ------- [4:0 0:0 30 6] [11 0] 1 0
f 0.438386594 _6_ RTR  --- 32 ack 40 [13a 6 4 800] ------- [4:0 0:0 29 0] [11 0] 1 0
r 0.452272129 _4_ AGT  --- 19 tcp 1540 [13a 4 6 800] ------- [0:0 4:0 29 4] [12 0] 2 0
s 0.452272129 _4_ AGT  --- 33 ack 40 [0 0 0 0] ------- [4:0 0:0 32 0] [12 0] 0 0
r 0.452272129 _4_ RTR  --- 33 ack 40 [0 0 0 0] ------- [4:0 0:0 32 0] [12 0] 0 0
s 0.452272129 _4_ RTR  --- 33 ack 40 [0 0 0 0] ------- [4:0 0:0 30 6] [12 0] 0 0
r 0.454337664 _6_ RTR  --- 33 ack 40 [13a 6 4 800] ------- [4:0 0:0 30 6] [12 0] 1 0
f 0.454337664 _6_ RTR  --- 33 ack 40 [13a 6 4 800] ------- [4:0 0:0 29 0] [12 0] 1 0
r 0.468263199 _4_ AGT  --- 20 tcp 1540 [13a 4 6 800] ------- [0:0 4:0 29 4] [13 0] 2 0
s 0.468263199 _4_ AGT  --- 34 ack 40 [0 0 0 0] ------- [4:0 0:0 32 0] [13 0] 0 0
r 0.468263199 _4_ RTR  --- 34 ack 40 [0 0 0 0] ------- [4:0 0:0 32 0] [13 0] 0 0
s 0.468263199 _4_ RTR  --- 34 ack 40 [0 0 0 0] ------- [4:0 0:0 30 6] [13 0] 0 0
r 0.482309245 _4_ AGT  --- 21 tcp 1540 [13a 4 6 800] ------- [0:0 4:0 29 4] [14 0] 2 0
s 0.482309245 _4_ AGT  --- 35 ack 40 [0 0 0 0] ------- [4:0 0:0 32 0] [14 0] 0 0
r 0.482309245 _4_ RTR  --- 35 ack 40 [0 0 0 0] ------- [4:0 0:0 32 0] [14 0] 0 0
s 0.482309245 _4_ RTR  --- 35 ack 40 [0 0 0 0] ------- [4:0 0:0 30 6] [14 0] 0 0
r 0.484315632 _0_ AGT  --- 31 ack 40 [13a 0 6 800] ------- [4:0 0:0 29 0] [10 0] 2 0
s 0.484315632 _0_ AGT  --- 36 tcp 1540 [0 0 0 0] ------- [0:0 4:0 32 0] [21 0] 0 0
r 0.484315632 _0_ RTR  --- 36 tcp 1540 [0 0 0 0] ------- [0:0 4:0 32 0] [21 0] 0 0
s 0.484315632 _0_ AGT  --- 37 tcp 1540 [0 0 0 0] ------- [0:0 4:0 32 0] [22 0] 0 0
r 0.484315632 _0_ RTR  --- 37 tcp 1540 [0 0 0 0] ------- [0:0 4:0 32 0] [22 0] 0 0
s 0.484315632 _0_ RTR  --- 36 tcp 1540 [0 0 0 0] ------- [0:0 4:0 30 6] [21 0] 0 0
s 0.484315632 _0_ RTR  --- 37 tcp 1540 [0 0 0 0] ------- [0:0 4:0 30 6] [22 0] 0 0
r 0.498301792 _4_ AGT  --- 24 tcp 1540 [13a 4 6 800] ------- [0:0 4:0 29 4] [15 0] 2 0
s 0.498301792 _4_ AGT  --- 38 ack 40 [0 0 0 0] ------- [4:0 0:0 32 0] [15 0] 0 0
r 0.498301792 _4_ RTR  --- 38 ack 40 [0 0 0 0] ------- [4:0 0:0 32 0] [15 0] 0 0
s 0.498301792 _4_ RTR  --- 38 ack 40 [0 0 0 0] ------- [4:0 0:0 30 6] [15 0] 0 0
r 0.500307327 _6_ RTR  --- 34 ack 40 [13a 6 4 800] ------- [4:0 0:0 30 6] [13 0] 1 0
f 0.500307327 _6_ RTR  --- 34 ack 40 [13a 6 4 800] ------- [4:0 0:0 29 0] [13 0] 1 0
r 0.514203803 _6_ RTR  --- 25 tcp 1540 [13a 6 0 800] ------- [0:0 4:0 30 6] [16 0] 1 0
f 0.514203803 _6_ RTR  --- 25 tcp 1540 [13a 6 0 800] ------- [0:0 4:0 29 4] [16 0] 1 0
r 0.528150304 _6_ RTR  --- 27 tcp 1540 [13a 6 0 800] ------- [0:0 4:0 30 6] [17 0] 1 0
f 0.528150304 _6_ RTR  --- 27 tcp 1540 [13a 6 0 800] ------- [0:0 4:0 29 4] [17 0] 1 0
r 0.530056179 _0_ AGT  --- 32 ack 40 [13a 0 6 800] ------- [4:0 0:0 29 0] [11 0] 2 0
s 0.530056179 _0_ AGT  --- 39 tcp 1540 [0 0 0 0] ------- [0:0 4:0 32 0] [23 0] 0 0
r 0.530056179 _0_ RTR  --- 39 tcp 1540 [0 0 0 0] ------- [0:0 4:0 32 0] [23 0] 0 0
s 0.530056179 _0_ AGT  --- 40 tcp 1540 [0 0 0 0] ------- [0:0 4:0 32 0] [24 0] 0 0
r 0.530056179 _0_ RTR  --- 40 tcp 1540 [0 0 0 0] ------- [0:0 4:0 32 0] [24 0] 0 0
s 0.530056179 _0_ RTR  --- 39 tcp 1540 [0 0 0 0] ------- [0:0 4:0 30 6] [23 0] 0 0
s 0.530056179 _0_ RTR  --- 40 tcp 1540 [0 0 0 0] ------- [0:0 4:0 30 6] [24 0] 0 0
r 0.543982055 _6_ RTR  --- 28 tcp 1540 [13a 6 0 800] ------- [0:0 4:0 30 6] [18 0] 1 0
f 0.543982055 _6_ RTR  --- 28 tcp 1540 [13a 6 0 800] ------- [0:0 4:0 29 4] [18 0] 1 0
r 0.557808555 _6_ RTR  --- 29 tcp 1540 [13a 6 0 800] ------- [0:0 4:0 30 6] [19 0] 1 0
f 0.557808555 _6_ RTR  --- 29 tcp 1540 [13a 6 0 800] ------- [0:0 4:0 29 4] [19 0] 1 0
r 0.560681681 _0_ AGT  --- 33 ack 40 [13a 0 6 800] ------- [4:0 0:0 29 0] [12 0] 2 0
s 0.560681681 _0_ AGT  --- 41 tcp 1540 [0 0 0 0] ------- [0:0 4:0 32 0] [25 0] 0 0
r 0.560681681 _0_ RTR  --- 41 tcp 1540 [0 0 0 0] ------- [0:0 4:0 32 0] [25 0] 0 0
s 0.560681681 _0_ AGT  --- 42 tcp 1540 [0 0 0 0] ------- [0:0 4:0 32 0] [26 0] 0 0
r 0.560681681 _0_ RTR  --- 42 tcp 1540 [0 0 0 0] ------- [0:0 4:0 32 0] [26 0] 0 0
s 0.560681681 _0_ RTR  --- 41 tcp 1540 [0 0 0 0] ------- [0:0 4:0 30 6] [25 0] 0 0
s 0.560681681 _0_ RTR  --- 42 tcp 1540 [0 0 0 0] ------- [0:0 4:0 30 6] [26 0] 0 0
r 0.562928181 _0_ AGT  --- 34 ack 40 [13a 0 6 800] ------- [4:0 0:0 29 0] [13 0] 2 0
s 0.562928181 _0_ AGT  --- 43 tcp 1540 [0 0 0 0] ------- [0:0 4:0 32 0] [27 0] 0 0
r 0.562928181 _0_ RTR  --- 43 tcp 1540 [0 0 0 0] ------- [0:0 4:0 32 0] [27 0] 0 0
s 0.562928181 _0_ AGT  --- 44 tcp 1540 [0 0 0 0] ------- [0:0 4:0 32 0] [28 0] 0 0
r 0.562928181 _0_ RTR  --- 44 tcp 1540 [0 0 0 0] ------- [0:0 4:0 32 0] [28 0] 0 0
s 0.562928181 _0_ RTR  --- 43 tcp 1540 [0 0 0 0] ------- [0:0 4:0 30 6] [27 0] 0 0
s 0.562928181 _0_ RTR  --- 44 tcp 1540 [0 0 0 0] ------- [0:0 4:0 30 6] [28 0] 0 0
r 0.577034057 _6_ RTR  --- 30 tcp 1540 [13a 6 0 800] ------- [0:0 4:0 30 6] [20 0] 1 0
f 0.577034057 _6_ RTR  --- 30 tcp 1540 [13a 6 0 800] ------- [0:0 4:0 29 4] [20 0] 1 0
r 0.579050079 _6_ RTR  --- 35 ack 40 [13a 6 4 800] ------- [4:0 0:0 30 6] [14 0] 1 0
f 0.579050079 _6_ RTR  --- 35 ack 40 [13a 6 4 800] ------- [4:0 0:0 29 0] [14 0] 1 0
r 0.592915614 _4_ AGT  --- 25 tcp 1540 [13a 4 6 800] ------- [0:0 4:0 29 4] [16 0] 2 0
s 0.592915614 _4_ AGT  --- 45 ack 40 [0 0 0 0] ------- [4:0 0:0 32 0] [16 0] 0 0
r 0.592915614 _4_ RTR  --- 45 ack 40 [0 0 0 0] ------- [4:0 0:0 32 0] [16 0] 0 0
s 0.592915614 _4_ RTR  --- 45 ack 40 [0 0 0 0] ------- [4:0 0:0 30 6] [16 0] 0 0
r 0.606761660 _4_ AGT  --- 27 tcp 1540 [13a 4 6 800] ------- [0:0 4:0 29 4] [17 0] 2 0
s 0.606761660 _4_ AGT  --- 46 ack 40 [0 0 0 0] ------- [4:0 0:0 32 0] [17 0] 0 0
r 0.606761660 _4_ RTR  --- 46 ack 40 [0 0 0 0] ------- [4:0 0:0 32 0] [17 0] 0 0
s 0.606761660 _4_ RTR  --- 46 ack 40 [0 0 0 0] ------- [4:0 0:0 30 6] [17 0] 0 0
r 0.608687195 _6_ RTR  --- 38 ack 40 [13a 6 4 800] ------- [4:0 0:0 30 6] [15 0] 1 0
f 0.608687195 _6_ RTR  --- 38 ack 40 [13a 6 4 800] ------- [4:0 0:0 29 0] [15 0] 1 0
r 0.610613242 _6_ RTR  --- 45 ack 40 [13a 6 4 800] ------- [4:0 0:0 30 6] [16 0] 1 0
f 0.610613242 _6_ RTR  --- 45 ack 40 [13a 6 4 800] ------- [4:0 0:0 29 0] [16 0] 1 0
r 0.612439289 _6_ RTR  --- 46 ack 40 [13a 6 4 800] ------- [4:0 0:0 30 6] [17 0] 1 0
f 0.612439289 _6_ RTR  --- 46 ack 40 [13a 6 4 800] ------- [4:0 0:0 29 0] [17 0] 1 0
r 0.626344823 _4_ AGT  --- 28 tcp 1540 [13a 4 6 800] ------- [0:0 4:0 29 4] [18 0] 2 0
s 0.626344823 _4_ AGT  --- 47 ack 40 [0 0 0 0] ------- [4:0 0:0 32 0] [18 0] 0 0
r 0.626344823 _4_ RTR  --- 47 ack 40 [0 0 0 0] ------- [4:0 0:0 32 0] [18 0] 0 0
s 0.626344823 _4_ RTR  --- 47 ack 40 [0 0 0 0] ------- [4:0 0:0 30 6] [18 0] 0 0
r 0.640615811 _6_ RTR  --- 36 tcp 1540 [13a 6 0 800] ------- [0:0 4:0 30 6] [21 0] 1 0
f 0.640615811 _6_ RTR  --- 36 tcp 1540 [13a 6 0 800] ------- [0:0 4:0 29 4] [21 0] 1 0
r 0.642571833 _6_ RTR  --- 47 ack 40 [13a 6 4 800] ------- [4:0 0:0 30 6] [18 0] 1 0
f 0.642571833 _6_ RTR  --- 47 ack 40 [13a 6 4 800] ------- [4:0 0:0 29 0] [18 0] 1 0
r 0.656437368 _4_ AGT  --- 29 tcp 1540 [13a 4 6 800] ------- [0:0 4:0 29 4] [19 0] 2 0
s 0.656437368 _4_ AGT  --- 48 ack 40 [0 0 0 0] ------- [4:0 0:0 32 0] [19 0] 0 0
r 0.656437368 _4_ RTR  --- 48 ack 40 [0 0 0 0] ------- [4:0 0:0 32 0] [19 0] 0 0
s 0.656437368 _4_ RTR  --- 48 ack 40 [0 0 0 0] ------- [4:0 0:0 30 6] [19 0] 0 0
r 0.658282903 _6_ RTR  --- 48 ack 40 [13a 6 4 800] ------- [4:0 0:0 30 6] [19 0] 1 0
f 0.658282903 _6_ RTR  --- 48 ack 40 [13a 6 4 800] ------- [4:0 0:0 29 0] [19 0] 1 0
r 0.672148438 _4_ AGT  --- 30 tcp 1540 [13a 4 6 800] ------- [0:0 4:0 29 4] [20 0] 2 0
s 0.672148438 _4_ AGT  --- 49 ack 40 [0 0 0 0] ------- [4:0 0:0 32 0] [20 0] 0 0
r 0.672148438 _4_ RTR  --- 49 ack 40 [0 0 0 0] ------- [4:0 0:0 32 0] [20 0] 0 0
s 0.672148438 _4_ RTR  --- 49 ack 40 [0 0 0 0] ------- [4:0 0:0 30 6] [20 0] 0 0
r 0.673994825 _0_ AGT  --- 35 ack 40 [13a 0 6 800] ------- [4:0 0:0 29 0] [14 0] 2 0
s 0.673994825 _0_ AGT  --- 50 tcp 1540 [0 0 0 0] ------- [0:0 4:0 32 0] [29 0] 0 0
r 0.673994825 _0_ RTR  --- 50 tcp 1540 [0 0 0 0] ------- [0:0 4:0 32 0] [29 0] 0 0
s 0.673994825 _0_ AGT  --- 51 tcp 1540 [0 0 0 0] ------- [0:0 4:0 32 0] [30 0] 0 0
r 0.673994825 _0_ RTR  --- 51 tcp 1540 [0 0 0 0] ------- [0:0 4:0 32 0] [30 0] 0 0
s 0.673994825 _0_ RTR  --- 50 tcp 1540 [0 0 0 0] ------- [0:0 4:0 30 6] [29 0] 0 0
s 0.673994825 _0_ RTR  --- 51 tcp 1540 [0 0 0 0] ------- [0:0 4:0 30 6] [30 0] 0 0
r 0.675841325 _0_ AGT  --- 38 ack 40 [13a 0 6 800] ------- [4:0 0:0 29 0] [15 0] 2 0
s 0.675841325 _0_ AGT  --- 52 tcp 1540 [0 0 0 0] ------- [0:0 4:0 32 0] [31 0] 0 0
r 0.675841325 _0_ RTR  --- 52 tcp 1540 [0 0 0 0] ------- [0:0 4:0 32 0] [31 0] 0 0
s 0.675841325 _0_ AGT  --- 53 tcp 1540 [0 0 0 0] ------- [0:0 4:0 32 0] [32 0] 0 0
r 0.675841325 _0_ RTR  --- 53 tcp 1540 [0 0 0 0] ------- [0:0 4:0 32 0] [32 0] 0 0
s 0.675841325 _0_ RTR  --- 52 tcp 1540 [0 0 0 0] ------- [0:0 4:0 30 6] [31 0] 0 0
s 0.675841325 _0_ RTR  --- 53 tcp 1540 [0 0 0 0] ------- [0:0 4:0 30 6] [32 0] 0 0
r 0.689947201 _6_ RTR  --- 37 tcp 1540 [13a 6 0 800] ------- [0:0 4:0 30 6] [22 0] 1 0
f 0.689947201 _6_ RTR  --- 37 tcp 1540 [13a 6 0 800] ------- [0:0 4:0 29 4] [22 0] 1 0
r 0.691873076 _0_ AGT  --- 45 ack 40 [13a 0 6 800] ------- [4:0 0:0 29 0] [16 0] 2 0
s 0.691873076 _0_ AGT  --- 54 tcp 1540 [0 0 0 0] ------- [0:0 4:0 32 0] [33 0] 0 0
r 0.691873076 _0_ RTR  --- 54 tcp 1540 [0 0 0 0] ------- [0:0 4:0 32 0] [33 0] 0 0
s 0.691873076 _0_ AGT  --- 55 tcp 1540 [0 0 0 0] ------- [0:0 4:0 32 0] [34 0] 0 0
r 0.691873076 _0_ RTR  --- 55 tcp 1540 [0 0 0 0] ------- [0:0 4:0 32 0] [34 0] 0 0
s 0.691873076 _0_ RTR  --- 54 tcp 1540 [0 0 0 0] ------- [0:0 4:0 30 6] [33 0] 0 0
s 0.691873076 _0_ RTR  --- 55 tcp 1540 [0 0 0 0] ------- [0:0 4:0 30 6] [34 0] 0 0
r 0.706058952 _6_ RTR  --- 39 tcp 1540 [13a 6 0 800] ------- [0:0 4:0 30 6] [23 0] 1 0
f 0.706058952 _6_ RTR  --- 39 tcp 1540 [13a 6 0 800] ------- [0:0 4:0 29 4] [23 0] 1 0
r 0.707904827 _0_ AGT  --- 46 ack 40 [13a 0 6 800] ------- [4:0 0:0 29 0] [17 0] 2 0
s 0.707904827 _0_ AGT  --- 56 tcp 1540 [0 0 0 0] ------- [0:0 4:0 32 0] [35 0] 0 0
r 0.707904827 _0_ RTR  --- 56 tcp 1540 [0 0 0 0] ------- [0:0 4:0 32 0] [35 0] 0 0
s 0.707904827 _0_ AGT  --- 57 tcp 1540 [0 0 0 0] ------- [0:0 4:0 32 0] [36 0] 0 0
r 0.707904827 _0_ RTR  --- 57 tcp 1540 [0 0 0 0] ------- [0:0 4:0 32 0] [36 0] 0 0
s 0.707904827 _0_ RTR  --- 56 tcp 1540 [0 0 0 0] ------- [0:0 4:0 30 6] [35 0] 0 0
s 0.707904827 _0_ RTR  --- 57 tcp 1540 [0 0 0 0] ------- [0:0 4:0 30 6] [36 0] 0 0
r 0.722050987 _4_ AGT  --- 36 tcp 1540 [13a 4 6 800] ------- [0:0 4:0 29 4] [21 0] 2 0
s 0.722050987 _4_ AGT  --- 58 ack 40 [0 0 0 0] ------- [4:0 0:0 32 0] [21 0] 0 0
r 0.722050987 _4_ RTR  --- 58 ack 40 [0 0 0 0] ------- [4:0 0:0 32 0] [21 0] 0 0
s 0.722050987 _4_ RTR  --- 58 ack 40 [0 0 0 0] ------- [4:0 0:0 30 6] [21 0] 0 0
r 0.724036522 _6_ RTR  --- 49 ack 40 [13a 6 4 800] ------- [4:0 0:0 30 6] [20 0] 1 0
f 0.724036522 _6_ RTR  --- 49 ack 40 [13a 6 4 800] ------- [4:0 0:0 29 0] [20 0] 1 0
r 0.725882398 _0_ AGT  --- 47 ack 40 [13a 0 6 800] ------- [4:0 0:0 29 0] [18 0] 2 0
s 0.725882398 _0_ AGT  --- 59 tcp 1540 [0 0 0 0] ------- [0:0 4:0 32 0] [37 0] 0 0
r 0.725882398 _0_ RTR  --- 59 tcp 1540 [0 0 0 0] ------- [0:0 4:0 32 0] [37 0] 0 0
s 0.725882398 _0_ AGT  --- 60 tcp 1540 [0 0 0 0] ------- [0:0 4:0 32 0] [38 0] 0 0
r 0.725882398 _0_ RTR  --- 60 tcp 1540 [0 0 0 0] ------- [0:0 4:0 32 0] [38 0] 0 0
s 0.725882398 _0_ RTR  --- 59 tcp 1540 [0 0 0 0] ------- [0:0 4:0 30 6] [37 0] 0 0
s 0.725882398 _0_ RTR  --- 60 tcp 1540 [0 0 0 0] ------- [0:0 4:0 30 6] [38 0] 0 0
r 0.739848273 _6_ RTR  --- 40 tcp 1540 [13a 6 0 800] ------- [0:0 4:0 30 6] [24 0] 1 0
f 0.739848273 _6_ RTR  --- 40 tcp 1540 [13a 6 0 800] ------- [0:0 4:0 29 4] [24 0] 1 0
r 0.741714148 _0_ AGT  --- 48 ack 40 [13a 0 6 800] ------- [4:0 0:0 29 0] [19 0] 2 0
s 0.741714148 _0_ AGT  --- 61 tcp 1540 [0 0 0 0] ------- [0:0 4:0 32 0] [39 0] 0 0
r 0.741714148 _0_ RTR  --- 61 tcp 1540 [0 0 0 0] ------- [0:0 4:0 32 0] [39 0] 0 0
s 0.741714148 _0_ RTR  --- 61 tcp 1540 [0 0 0 0] ------- [0:0 4:0 30 6] [39 0] 0 0
r 0.755640024 _6_ RTR  --- 41 tcp 1540 [13a 6 0 800] ------- [0:0 4:0 30 6] [25 0] 1 0
f 0.755640024 _6_ RTR  --- 41 tcp 1540 [13a 6 0 800] ------- [0:0 4:0 29 4] [25 0] 1 0
r 0.769466524 _6_ RTR  --- 42 tcp 1540 [13a 6 0 800] ------- [0:0 4:0 30 6] [26 0] 1 0
f 0.769466524 _6_ RTR  --- 42 tcp 1540 [13a 6 0 800] ------- [0:0 4:0 29 4] [26 0] 1 0
r 0.783393025 _6_ RTR  --- 43 tcp 1540 [13a 6 0 800] ------- [0:0 4:0 30 6] [27 0] 1 0
f 0.783393025 _6_ RTR  --- 43 tcp 1540 [13a 6 0 800] ------- [0:0 4:0 29 4] [27 0] 1 0