n -t * -s 0  -x 967 -y 300 -Z 0 -z 25  -v circle -c black
n -t * -s 1  -x 222 -y 52 -Z 0 -z 25  -v circle -c black
n -t * -s 2  -x 84 -y 943 -Z 0 -z 25  -v circle -c black
n -t * -s 3  -x 489 -y 676 -Z 0 -z 25  -v circle -c black
n -t * -s 4  -x 738 -y 237 -Z 0 -z 25  -v circle -c black
n -t * -s 5  -x 359 -y 769 -Z 0 -z 25  -v circle -c black
n -t * -s 6  -x 487 -y 975 -Z 0 -z 25  -v circle -c black
n -t * -s 7  -x 247 -y 501 -Z 0 -z 25  -v circle -c black
n -t * -s 8  -x 651 -y 769 -Z 0 -z 25  -v circle -c black
n -t * -s 9  -x 200 -y 414 -Z 0 -z 25  -v circle -c black
n -t * -s 10  -x 739 -y 458 -Z 0 -z 25  -v circle -c black
n -t * -s 11  -x 359 -y 644 -Z 0 -z 25  -v circle -c black
n -t * -s 12  -x 55 -y 994 -Z 0 -z 25  -v circle -c black
n -t * -s 13  -x 795 -y 802 -Z 0 -z 25  -v circle -c black
n -t * -s 14  -x 939 -y 475 -Z 0 -z 25  -v circle -c black
n -t * -s 15  -x 314 -y 204 -Z 0 -z 25  -v circle -c black
n -t * -s 16  -x 34 -y 279 -Z 0 -z 25  -v circle -c black
n -t * -s 17  -x 995 -y 246 -Z 0 -z 25  -v circle -c black
n -t * -s 18  -x 979 -y 828 -Z 0 -z 25  -v circle -c black
n -t * -s 19  -x 92 -y 547 -Z 0 -z 25  -v circle -c black
n -t * -s 20  -x 300 -y 65 -Z 0 -z 25  -v circle -c black
n -t * -s 21  -x 142 -y 772 -Z 0 -z 25  -v circle -c black
n -t * -s 22  -x 884 -y 674 -Z 0 -z 25  -v circle -c black
n -t * -s 23  -x 1008 -y 730 -Z 0 -z 25  -v circle -c black
n -t * -s 24  -x 587 -y 100 -Z 0 -z 25  -v circle -c black
V -t * -v 1.0a5 -a 0
W -t * -x 1000 -y 1000
A -t * -n 1 -p 0 -o 0x7fffffff -c 30 -a 1
A -t * -h 1 -m 1073741823 -s 0
+ -t 0.010000000 -s 0 -d -1 -p tcp -e 40 -c 2 -a 0 -i 0 -k AGT 
- -t 0.010000000 -s 0 -d -1 -p tcp -e 40 -c 2 -a 0 -i 0 -k AGT
h -t 0.010000000 -s 0 -d -1 -p tcp -e 40 -c 2 -a 0 -i 0 -k AGT
+ -t 0.010000000 -s 0 -d -1 -p AODV -e 48 -c 2 -a 0 -i 0 -k RTR 
- -t 0.010000000 -s 0 -d -1 -p AODV -e 48 -c 2 -a 0 -i 0 -k RTR
h -t 0.010000000 -s 0 -d -1 -p AODV -e 48 -c 2 -a 0 -i 0 -k RTR
r -t 0.010988203 -s 17 -d -1 -p AODV -e 48 -c 2 -a 0 -i 0 -k RTR
r -t 0.010988591 -s 14 -d -1 -p AODV -e 48 -c 2 -a 0 -i 0 -k RTR
r -t 0.010988792 -s 4 -d -1 -p AODV -e 48 -c 2 -a 0 -i 0 -k RTR
+ -t 0.011869429 -s 17 -d -1 -p AODV -e 48 -c 2 -a 0 -i 0 -k RTR 
- -t 0.011869429 -s 17 -d -1 -p AODV -e 48 -c 2 -a 0 -i 0 -k RTR
h -t 0.011869429 -s 17 -d -1 -p AODV -e 48 -c 2 -a 0 -i 0 -k RTR
r -t 0.012977632 -s 0 -d -1 -p AODV -e 48 -c 2 -a 0 -i 0 -k RTR
r -t 0.012978215 -s 14 -d -1 -p AODV -e 48 -c 2 -a 0 -i 0 -k RTR
+ -t 0.015400325 -s 14 -d -1 -p AODV -e 48 -c 2 -a 0 -i 0 -k RTR 
- -t 0.015400325 -s 14 -d -1 -p AODV -e 48 -c 2 -a 0 -i 0 -k RTR
h -t 0.015400325 -s 14 -d -1 -p AODV -e 48 -c 2 -a 0 -i 0 -k RTR
r -t 0.016588915 -s 0 -d -1 -p AODV -e 48 -c 2 -a 0 -i 0 -k RTR
r -t 0.016588994 -s 10 -d -1 -p AODV -e 48 -c 2 -a 0 -i 0 -k RTR
r -t 0.016589013 -s 22 -d -1 -p AODV -e 48 -c 2 -a 0 -i 0 -k RTR
r -t 0.016589110 -s 17 -d -1 -p AODV -e 48 -c 2 -a 0 -i 0 -k RTR
+ -t 0.018980346 -s 4 -d -1 -p AODV -e 48 -c 2 -a 0 -i 0 -k RTR 
- -t 0.018980346 -s 4 -d -1 -p AODV -e 48 -c 2 -a 0 -i 0 -k RTR
h -t 0.018980346 -s 4 -d -1 -p AODV -e 48 -c 2 -a 0 -i 0 -k RTR
+ -t 0.019679784 -s 10 -d -1 -p AODV -e 48 -c 2 -a 0 -i 0 -k RTR 
- -t 0.019679784 -s 10 -d -1 -p AODV -e 48 -c 2 -a 0 -i 0 -k RTR
h -t 0.019679784 -s 10 -d -1 -p AODV -e 48 -c 2 -a 0 -i 0 -k RTR
r -t 0.019969026 -s 24 -d -1 -p AODV -e 48 -c 2 -a 0 -i 0 -k RTR
+ -t 0.019969026 -s 24 -d 4 -p AODV -e 44 -c 2 -a 0 -i 0 -k RTR 
- -t 0.019969026 -s 24 -d 4 -p AODV -e 44 -c 2 -a 0 -i 0 -k RTR
h -t 0.019969026 -s 24 -d 4 -p AODV -e 44 -c 2 -a 0 -i 0 -k RTR
r -t 0.019969083 -s 10 -d -1 -p AODV -e 48 -c 2 -a 0 -i 0 -k RTR
r -t 0.019969138 -s 0 -d -1 -p AODV -e 48 -c 2 -a 0 -i 0 -k RTR
+ -t 0.024616783 -s 4 -d 0 -p AODV -e 44 -c 2 -a 0 -i 0 -k RTR 
- -t 0.024616783 -s 4 -d 0 -p AODV -e 44 -c 2 -a 0 -i 0 -k RTR
h -t 0.024616783 -s 4 -d 0 -p AODV -e 44 -c 2 -a 0 -i 0 -k RTR
+ -t 0.024952248 -s 22 -d -1 -p AODV -e 48 -c 2 -a 0 -i 0 -k RTR 
- -t 0.024952248 -s 22 -d -1 -p AODV -e 48 -c 2 -a 0 -i 0 -k RTR
h -t 0.024952248 -s 22 -d -1 -p AODV -e 48 -c 2 -a 0 -i 0 -k RTR
r -t 0.026040069 -s 14 -d -1 -p AODV -e 48 -c 2 -a 0 -i 0 -k RTR
r -t 0.026040137 -s 4 -d -1 -p AODV -e 48 -c 2 -a 0 -i 0 -k RTR
+ -t 0.030478679 -s 0 -d 4 -p tcp -e 40 -c 2 -a 0 -i 0 -k RTR 
- -t 0.030478679 -s 0 -d 4 -p tcp -e 40 -c 2 -a 0 -i 0 -k RTR
h -t 0.030478679 -s 0 -d 4 -p tcp -e 40 -c 2 -a 0 -i 0 -k RTR
+ -t 0.032365054 -s 4 -d 24 -p tcp -e 40 -c 2 -a 0 -i 0 -k RTR 
- -t 0.032365054 -s 4 -d 24 -p tcp -e 40 -c 2 -a 0 -i 0 -k RTR
h -t 0.032365054 -s 4 -d 24 -p tcp -e 40 -c 2 -a 0 -i 0 -k RTR
r -t 0.034591093 -s 24 -d 24 -p tcp -e 40 -c 2 -a 0 -i 0 -k AGT
+ -t 0.034591093 -s 24 -d -1 -p ack -e 40 -c 2 -a 0 -i 1 -k AGT 
- -t 0.034591093 -s 24 -d -1 -p ack -e 40 -c 2 -a 0 -i 1 -k AGT
h -t 0.034591093 -s 24 -d -1 -p ack -e 40 -c 2 -a 0 -i 1 -k AGT
+ -t 0.034591093 -s 24 -d 4 -p ack -e 40 -c 2 -a 0 -i 1 -k RTR 
- -t 0.034591093 -s 24 -d 4 -p ack -e 40 -c 2 -a 0 -i 1 -k RTR
h -t 0.034591093 -s 24 -d 4 -p ack -e 40 -c 2 -a 0 -i 1 -k RTR
r -t 0.036154402 -s 23 -d -1 -p AODV -e 48 -c 2 -a 0 -i 0 -k RTR
r -t 0.036154468 -s 13 -d -1 -p AODV -e 48 -c 2 -a 0 -i 0 -k RTR
r -t 0.036154552 -s 18 -d -1 -p AODV -e 48 -c 2 -a 0 -i 0 -k RTR
r -t 0.036154637 -s 14 -d -1 -p AODV -e 48 -c 2 -a 0 -i 0 -k RTR
+ -t 0.038417131 -s 4 -d 0 -p ack -e 40 -c 2 -a 0 -i 1 -k RTR 
- -t 0.038417131 -s 4 -d 0 -p ack -e 40 -c 2 -a 0 -i 1 -k RTR
h -t 0.038417131 -s 4 -d 0 -p ack -e 40 -c 2 -a 0 -i 1 -k RTR
+ -t 0.038566659 -s 23 -d -1 -p AODV -e 48 -c 2 -a 0 -i 0 -k RTR 
- -t 0.038566659 -s 23 -d -1 -p AODV -e 48 -c 2 -a 0 -i 0 -k RTR
h -t 0.038566659 -s 23 -d -1 -p AODV -e 48 -c 2 -a 0 -i 0 -k RTR
r -t 0.039594999 -s 18 -d -1 -p AODV -e 48 -c 2 -a 0 -i 0 -k RTR
r -t 0.039595112 -s 22 -d -1 -p AODV -e 48 -c 2 -a 0 -i 0 -k RTR
r -t 0.039595408 -s 13 -d -1 -p AODV -e 48 -c 2 -a 0 -i 0 -k RTR
r -t 0.041103506 -s 0 -d 0 -p ack -e 40 -c 2 -a 0 -i 1 -k AGT
+ -t 0.041103506 -s 0 -d -1 -p tcp -e 1540 -c 2 -a 0 -i 2 -k AGT 
- -t 0.041103506 -s 0 -d -1 -p tcp -e 1540 -c 2 -a 0 -i 2 -k AGT
h -t 0.041103506 -s 0 -d -1 -p tcp -e 1540 -c 2 -a 0 -i 2 -k AGT
+ -t 0.041103506 -s 0 -d -1 -p tcp -e 1540 -c 2 -a 0 -i 3 -k AGT 
- -t 0.041103506 -s 0 -d -1 -p tcp -e 1540 -c 2 -a 0 -i 3 -k AGT
h -t 0.041103506 -s 0 -d -1 -p tcp -e 1540 -c 2 -a 0 -i 3 -k AGT
+ -t 0.041103506 -s 0 -d 4 -p tcp -e 1540 -c 2 -a 0 -i 2 -k RTR 
- -t 0.041103506 -s 0 -d 4 -p tcp -e 1540 -c 2 -a 0 -i 2 -k RTR
h -t 0.041103506 -s 0 -d 4 -p tcp -e 1540 -c 2 -a 0 -i 2 -k RTR
+ -t 0.041103506 -s 0 -d 4 -p tcp -e 1540 -c 2 -a 0 -i 3 -k RTR 
- -t 0.041103506 -s 0 -d 4 -p tcp -e 1540 -c 2 -a 0 -i 3 -k RTR
h -t 0.041103506 -s 0 -d 4 -p tcp -e 1540 -c 2 -a 0 -i 3 -k RTR
+ -t 0.042928041 -s 18 -d -1 -p AODV -e 48 -c 2 -a 0 -i 0 -k RTR 
- -t 0.042928041 -s 18 -d -1 -p AODV -e 48 -c 2 -a 0 -i 0 -k RTR
h -t 0.042928041 -s 18 -d -1 -p AODV -e 48 -c 2 -a 0 -i 0 -k RTR
+ -t 0.044665534 -s 13 -d -1 -p AODV -e 48 -c 2 -a 0 -i 0 -k RTR 
- -t 0.044665534 -s 13 -d -1 -p AODV -e 48 -c 2 -a 0 -i 0 -k RTR
h -t 0.044665534 -s 13 -d -1 -p AODV -e 48 -c 2 -a 0 -i 0 -k RTR
+ -t 0.055449882 -s 4 -d 24 -p tcp -e 1540 -c 2 -a 0 -i 2 -k RTR 
- -t 0.055449882 -s 4 -d 24 -p tcp -e 1540 -c 2 -a 0 -i 2 -k RTR
h -t 0.055449882 -s 4 -d 24 -p tcp -e 1540 -c 2 -a 0 -i 2 -k RTR
r -t 0.056913191 -s 23 -d -1 -p AODV -e 48 -c 2 -a 0 -i 0 -k RTR
r -t 0.056913470 -s 13 -d -1 -p AODV -e 48 -c 2 -a 0 -i 0 -k RTR
r -t 0.058191989 -s 22 -d -1 -p AODV -e 48 -c 2 -a 0 -i 0 -k RTR
r -t 0.058192089 -s 18 -d -1 -p AODV -e 48 -c 2 -a 0 -i 0 -k RTR
r -t 0.058192219 -s 23 -d -1 -p AODV -e 48 -c 2 -a 0 -i 0 -k RTR
r -t 0.069335920 -s 24 -d 24 -p tcp -e 1540 -c 2 -a 0 -i 2 -k AGT
+ -t 0.069335920 -s 24 -d -1 -p ack -e 40 -c 2 -a 0 -i 4 -k AGT 
- -t 0.069335920 -s 24 -d -1 -p ack -e 40 -c 2 -a 0 -i 4 -k AGT
h -t 0.069335920 -s 24 -d -1 -p ack -e 40 -c 2 -a 0 -i 4 -k AGT
+ -t 0.069335920 -s 24 -d 4 -p ack -e 40 -c 2 -a 0 -i 4 -k RTR 
- -t 0.069335920 -s 24 -d 4 -p ack -e 40 -c 2 -a 0 -i 4 -k RTR
h -t 0.069335920 -s 24 -d 4 -p ack -e 40 -c 2 -a 0 -i 4 -k RTR
+ -t 0.071441959 -s 4 -d 0 -p ack -e 40 -c 2 -a 0 -i 4 -k RTR 
- -t 0.071441959 -s 4 -d 0 -p ack -e 40 -c 2 -a 0 -i 4 -k RTR
h -t 0.071441959 -s 4 -d 0 -p ack -e 40 -c 2 -a 0 -i 4 -k RTR
+ -t 0.085399086 -s 4 -d 24 -p tcp -e 1540 -c 2 -a 0 -i 3 -k RTR 
- -t 0.085399086 -s 4 -d 24 -p tcp -e 1540 -c 2 -a 0 -i 3 -k RTR
h -t 0.085399086 -s 4 -d 24 -p tcp -e 1540 -c 2 -a 0 -i 3 -k RTR
r -t 0.087385461 -s 0 -d 0 -p ack -e 40 -c 2 -a 0 -i 4 -k AGT
+ -t 0.087385461 -s 0 -d -1 -p tcp -e 1540 -c 2 -a 0 -i 5 -k AGT 
- -t 0.087385461 -s 0 -d -1 -p tcp -e 1540 -c 2 -a 0 -i 5 -k AGT
h -t 0.087385461 -s 0 -d -1 -p tcp -e 1540 -c 2 -a 0 -i 5 -k AGT
+ -t 0.087385461 -s 0 -d -1 -p tcp -e 1540 -c 2 -a 0 -i 6 -k AGT 
- -t 0.087385461 -s 0 -d -1 -p tcp -e 1540 -c 2 -a 0 -i 6 -k AGT
h -t 0.087385461 -s 0 -d -1 -p tcp -e 1540 -c 2 -a 0 -i 6 -k AGT
+ -t 0.087385461 -s 0 -d 4 -p tcp -e 1540 -c 2 -a 0 -i 5 -k RTR 
- -t 0.087385461 -s 0 -d 4 -p tcp -e 1540 -c 2 -a 0 -i 5 -k RTR
h -t 0.087385461 -s 0 -d 4 -p tcp -e 1540 -c 2 -a 0 -i 5 -k RTR
+ -t 0.087385461 -s 0 -d 4 -p tcp -e 1540 -c 2 -a 0 -i 6 -k RTR 
- -t 0.087385461 -s 0 -d 4 -p tcp -e 1540 -c 2 -a 0 -i 6 -k RTR
h -t 0.087385461 -s 0 -d 4 -p tcp -e 1540 -c 2 -a 0 -i 6 -k RTR
+ -t 0.101431836 -s 4 -d 24 -p tcp -e 1540 -c 2 -a 0 -i 5 -k RTR 
- -t 0.101431836 -s 4 -d 24 -p tcp -e 1540 -c 2 -a 0 -i 5 -k RTR
h -t 0.101431836 -s 4 -d 24 -p tcp -e 1540 -c 2 -a 0 -i 5 -k RTR
r -t 0.115357875 -s 24 -d 24 -p tcp -e 1540 -c 2 -a 0 -i 3 -k AGT
+ -t 0.115357875 -s 24 -d -1 -p ack -e 40 -c 2 -a 0 -i 7 -k AGT 
- -t 0.115357875 -s 24 -d -1 -p ack -e 40 -c 2 -a 0 -i 7 -k AGT
h -t 0.115357875 -s 24 -d -1 -p ack -e 40 -c 2 -a 0 -i 7 -k AGT
+ -t 0.115357875 -s 24 -d 4 -p ack -e 40 -c 2 -a 0 -i 7 -k RTR 
- -t 0.115357875 -s 24 -d 4 -p ack -e 40 -c 2 -a 0 -i 7 -k RTR
h -t 0.115357875 -s 24 -d 4 -p ack -e 40 -c 2 -a 0 -i 7 -k RTR
+ -t 0.130231722 -s 4 -d 24 -p tcp -e 1540 -c 2 -a 0 -i 6 -k RTR 
- -t 0.130231722 -s 4 -d 24 -p tcp -e 1540 -c 2 -a 0 -i 6 -k RTR
h -t 0.130231722 -s 4 -d 24 -p tcp -e 1540 -c 2 -a 0 -i 6 -k RTR
r -t 0.144377760 -s 24 -d 24 -p tcp -e 1540 -c 2 -a 0 -i 5 -k AGT
+ -t 0.144377760 -s 24 -d -1 -p ack -e 40 -c 2 -a 0 -i 8 -k AGT 
- -t 0.144377760 -s 24 -d -1 -p ack -e 40 -c 2 -a 0 -i 8 -k AGT
h -t 0.144377760 -s 24 -d -1 -p ack -e 40 -c 2 -a 0 -i 8 -k AGT
+ -t 0.144377760 -s 24 -d 4 -p ack -e 40 -c 2 -a 0 -i 8 -k RTR 
- -t 0.144377760 -s 24 -d 4 -p ack -e 40 -c 2 -a 0 -i 8 -k RTR
h -t 0.144377760 -s 24 -d 4 -p ack -e 40 -c 2 -a 0 -i 8 -k RTR
r -t 0.158444479 -s 24 -d 24 -p tcp -e 1540 -c 2 -a 0 -i 6 -k AGT
+ -t 0.158444479 -s 24 -d -1 -p ack -e 40 -c 2 -a 0 -i 9 -k AGT 
- -t 0.158444479 -s 24 -d -1 -p ack -e 40 -c 2 -a 0 -i 9 -k AGT
h -t 0.158444479 -s 24 -d -1 -p ack -e 40 -c 2 -a 0 -i 9 -k AGT
+ -t 0.158444479 -s 24 -d 4 -p ack -e 40 -c 2 -a 0 -i 9 -k RTR 
- -t 0.158444479 -s 24 -d 4 -p ack -e 40 -c 2 -a 0 -i 9 -k RTR
h -t 0.158444479 -s 24 -d 4 -p ack -e 40 -c 2 -a 0 -i 9 -k RTR
+ -t 0.160610518 -s 4 -d 0 -p ack -e 40 -c 2 -a 0 -i 7 -k RTR 
- -t 0.160610518 -s 4 -d 0 -p ack -e 40 -c 2 -a 0 -i 7 -k RTR
h -t 0.160610518 -s 4 -d 0 -p ack -e 40 -c 2 -a 0 -i 7 -k RTR
+ -t 0.162457236 -s 4 -d 0 -p ack -e 40 -c 2 -a 0 -i 8 -k RTR 
- -t 0.162457236 -s 4 -d 0 -p ack -e 40 -c 2 -a 0 -i 8 -k RTR
h -t 0.162457236 -s 4 -d 0 -p ack -e 40 -c 2 -a 0 -i 8 -k RTR
r -t 0.164543611 -s 0 -d 0 -p ack -e 40 -c 2 -a 0 -i 7 -k AGT
+ -t 0.164543611 -s 0 -d -1 -p tcp -e 1540 -c 2 -a 0 -i 10 -k AGT 
- -t 0.164543611 -s 0 -d -1 -p tcp -e 1540 -c 2 -a 0 -i 10 -k AGT
h -t 0.164543611 -s 0 -d -1 -p tcp -e 1540 -c 2 -a 0 -i 10 -k AGT
+ -t 0.164543611 -s 0 -d -1 -p tcp -e 1540 -c 2 -a 0 -i 11 -k AGT 
- -t 0.164543611 -s 0 -d -1 -p tcp -e 1540 -c 2 -a 0 -i 11 -k AGT
h -t 0.164543611 -s 0 -d -1 -p tcp -e 1540 -c 2 -a 0 -i 11 -k AGT
+ -t 0.164543611 -s 0 -d 4 -p tcp -e 1540 -c 2 -a 0 -i 10 -k RTR 
- -t 0.164543611 -s 0 -d 4 -p tcp -e 1540 -c 2 -a 0 -i 10 -k RTR
h -t 0.164543611 -s 0 -d 4 -p tcp -e 1540 -c 2 -a 0 -i 10 -k RTR
+ -t 0.164543611 -s 0 -d 4 -p tcp -e 1540 -c 2 -a 0 -i 11 -k RTR 
- -t 0.164543611 -s 0 -d 4 -p tcp -e 1540 -c 2 -a 0 -i 11 -k RTR
h -t 0.164543611 -s 0 -d 4 -p tcp -e 1540 -c 2 -a 0 -i 11 -k RTR
r -t 0.166490778 -s 0 -d 0 -p ack -e 40 -c 2 -a 0 -i 8 -k AGT
+ -t 0.166490778 -s 0 -d -1 -p tcp -e 1540 -c 2 -a 0 -i 12 -k AGT 
- -t 0.166490778 -s 0 -d -1 -p tcp -e 1540 -c 2 -a 0 -i 12 -k AGT
h -t 0.166490778 -s 0 -d -1 -p tcp -e 1540 -c 2 -a 0 -i 12 -k AGT
+ -t 0.166490778 -s 0 -d -1 -p tcp -e 1540 -c 2 -a 0 -i 13 -k AGT 
- -t 0.166490778 -s 0 -d -1 -p tcp -e 1540 -c 2 -a 0 -i 13 -k AGT
h -t 0.166490778 -s 0 -d -1 -p tcp -e 1540 -c 2 -a 0 -i 13 -k AGT
+ -t 0.166490778 -s 0 -d 4 -p tcp -e 1540 -c 2 -a 0 -i 12 -k RTR 
- -t 0.166490778 -s 0 -d 4 -p tcp -e 1540 -c 2 -a 0 -i 12 -k RTR
h -t 0.166490778 -s 0 -d 4 -p tcp -e 1540 -c 2 -a 0 -i 12 -k RTR
+ -t 0.166490778 -s 0 -d 4 -p tcp -e 1540 -c 2 -a 0 -i 13 -k RTR 
- -t 0.166490778 -s 0 -d 4 -p tcp -e 1540 -c 2 -a 0 -i 13 -k RTR
h -t 0.166490778 -s 0 -d 4 -p tcp -e 1540 -c 2 -a 0 -i 13 -k RTR
+ -t 0.180437153 -s 4 -d 24 -p tcp -e 1540 -c 2 -a 0 -i 10 -k RTR 
- -t 0.180437153 -s 4 -d 24 -p tcp -e 1540 -c 2 -a 0 -i 10 -k RTR
h -t 0.180437153 -s 4 -d 24 -p tcp -e 1540 -c 2 -a 0 -i 10 -k RTR
+ -t 0.194304320 -s 4 -d 24 -p tcp -e 1540 -c 2 -a 0 -i 11 -k RTR 
- -t 0.194304320 -s 4 -d 24 -p tcp -e 1540 -c 2 -a 0 -i 11 -k RTR
h -t 0.194304320 -s 4 -d 24 -p tcp -e 1540 -c 2 -a 0 -i 11 -k RTR
r -t 0.208270359 -s 24 -d 24 -p tcp -e 1540 -c 2 -a 0 -i 10 -k AGT
+ -t 0.208270359 -s 24 -d -1 -p ack -e 40 -c 2 -a 0 -i 14 -k AGT 
- -t 0.208270359 -s 24 -d -1 -p ack -e 40 -c 2 -a 0 -i 14 -k AGT
h -t 0.208270359 -s 24 -d -1 -p ack -e 40 -c 2 -a 0 -i 14 -k AGT
+ -t 0.208270359 -s 24 -d 4 -p ack -e 40 -c 2 -a 0 -i 14 -k RTR 
- -t 0.208270359 -s 24 -d 4 -p ack -e 40 -c 2 -a 0 -i 14 -k RTR
h -t 0.208270359 -s 24 -d 4 -p ack -e 40 -c 2 -a 0 -i 14 -k RTR
r -t 0.222217077 -s 24 -d 24 -p tcp -e 1540 -c 2 -a 0 -i 11 -k AGT
+ -t 0.222217077 -s 24 -d -1 -p ack -e 40 -c 2 -a 0 -i 15 -k AGT 
- -t 0.222217077 -s 24 -d -1 -p ack -e 40 -c 2 -a 0 -i 15 -k AGT
h -t 0.222217077 -s 24 -d -1 -p ack -e 40 -c 2 -a 0 -i 15 -k AGT
+ -t 0.222217077 -s 24 -d 4 -p ack -e 40 -c 2 -a 0 -i 15 -k RTR 
- -t 0.222217077 -s 24 -d 4 -p ack -e 40 -c 2 -a 0 -i 15 -k RTR
h -t 0.222217077 -s 24 -d 4 -p ack -e 40 -c 2 -a 0 -i 15 -k RTR
+ -t 0.224063116 -s 4 -d 0 -p ack -e 40 -c 2 -a 0 -i 9 -k RTR 
- -t 0.224063116 -s 4 -d 0 -p ack -e 40 -c 2 -a 0 -i 9 -k RTR
h -t 0.224063116 -s 4 -d 0 -p ack -e 40 -c 2 -a 0 -i 9 -k RTR
+ -t 0.225989835 -s 4 -d 0 -p ack -e 40 -c 2 -a 0 -i 14 -k RTR 
- -t 0.225989835 -s 4 -d 0 -p ack -e 40 -c 2 -a 0 -i 14 -k RTR
h -t 0.225989835 -s 4 -d 0 -p ack -e 40 -c 2 -a 0 -i 14 -k RTR
+ -t 0.227896553 -s 4 -d 0 -p ack -e 40 -c 2 -a 0 -i 15 -k RTR 
- -t 0.227896553 -s 4 -d 0 -p ack -e 40 -c 2 -a 0 -i 15 -k RTR
h -t 0.227896553 -s 4 -d 0 -p ack -e 40 -c 2 -a 0 -i 15 -k RTR
r -t 0.229742928 -s 0 -d 0 -p ack -e 40 -c 2 -a 0 -i 9 -k AGT
+ -t 0.229742928 -s 0 -d -1 -p tcp -e 1540 -c 2 -a 0 -i 16 -k AGT 
- -t 0.229742928 -s 0 -d -1 -p tcp -e 1540 -c 2 -a 0 -i 16 -k AGT
h -t 0.229742928 -s 0 -d -1 -p tcp -e 1540 -c 2 -a 0 -i 16 -k AGT
+ -t 0.229742928 -s 0 -d -1 -p tcp -e 1540 -c 2 -a 0 -i 17 -k AGT 
- -t 0.229742928 -s 0 -d -1 -p tcp -e 1540 -c 2 -a 0 -i 17 -k AGT
h -t 0.229742928 -s 0 -d -1 -p tcp -e 1540 -c 2 -a 0 -i 17 -k AGT
+ -t 0.229742928 -s 0 -d 4 -p tcp -e 1540 -c 2 -a 0 -i 16 -k RTR 
- -t 0.229742928 -s 0 -d 4 -p tcp -e 1540 -c 2 -a 0 -i 16 -k RTR
h -t 0.229742928 -s 0 -d 4 -p tcp -e 1540 -c 2 -a 0 -i 16 -k RTR
+ -t 0.229742928 -s 0 -d 4 -p tcp -e 1540 -c 2 -a 0 -i 17 -k RTR 
- -t 0.229742928 -s 0 -d 4 -p tcp -e 1540 -c 2 -a 0 -i 17 -k RTR
h -t 0.229742928 -s 0 -d 4 -p tcp -e 1540 -c 2 -a 0 -i 17 -k RTR
r -t 0.231770095 -s 0 -d 0 -p ack -e 40 -c 2 -a 0 -i 14 -k AGT
+ -t 0.231770095 -s 0 -d -1 -p tcp -e 1540 -c 2 -a 0 -i 18 -k AGT 
- -t 0.231770095 -s 0 -d -1 -p tcp -e 1540 -c 2 -a 0 -i 18 -k AGT
h -t 0.231770095 -s 0 -d -1 -p tcp -e 1540 -c 2 -a 0 -i 18 -k AGT
+ -t 0.231770095 -s 0 -d -1 -p tcp -e 1540 -c 2 -a 0 -i 19 -k AGT 
- -t 0.231770095 -s 0 -d -1 -p tcp -e 1540 -c 2 -a 0 -i 19 -k AGT
h -t 0.231770095 -s 0 -d -1 -p tcp -e 1540 -c 2 -a 0 -i 19 -k AGT
+ -t 0.231770095 -s 0 -d 4 -p tcp -e 1540 -c 2 -a 0 -i 18 -k RTR 
- -t 0.231770095 -s 0 -d 4 -p tcp -e 1540 -c 2 -a 0 -i 18 -k RTR
h -t 0.231770095 -s 0 -d 4 -p tcp -e 1540 -c 2 -a 0 -i 18 -k RTR
+ -t 0.231770095 -s 0 -d 4 -p tcp -e 1540 -c 2 -a 0 -i 19 -k RTR 
- -t 0.231770095 -s 0 -d 4 -p tcp -e 1540 -c 2 -a 0 -i 19 -k RTR
h -t 0.231770095 -s 0 -d 4 -p tcp -e 1540 -c 2 -a 0 -i 19 -k RTR
r -t 0.234823262 -s 0 -d 0 -p ack -e 40 -c 2 -a 0 -i 15 -k AGT
+ -t 0.234823262 -s 0 -d -1 -p tcp -e 1540 -c 2 -a 0 -i 20 -k AGT 
- -t 0.234823262 -s 0 -d -1 -p tcp -e 1540 -c 2 -a 0 -i 20 -k AGT
h -t 0.234823262 -s 0 -d -1 -p tcp -e 1540 -c 2 -a 0 -i 20 -k AGT
+ -t 0.234823262 -s 0 -d -1 -p tcp -e 1540 -c 2 -a 0 -i 21 -k AGT 
- -t 0.234823262 -s 0 -d -1 -p tcp -e 1540 -c 2 -a 0 -i 21 -k AGT
h -t 0.234823262 -s 0 -d -1 -p tcp -e 1540 -c 2 -a 0 -i 21 -k AGT
+ -t 0.234823262 -s 0 -d 4 -p tcp -e 1540 -c 2 -a 0 -i 20 -k RTR 
- -t 0.234823262 -s 0 -d 4 -p tcp -e 1540 -c 2 -a 0 -i 20 -k RTR
h -t 0.234823262 -s 0 -d 4 -p tcp -e 1540 -c 2 -a 0 -i 20 -k RTR
+ -t 0.234823262 -s 0 -d 4 -p tcp -e 1540 -c 2 -a 0 -i 21 -k RTR 
- -t 0.234823262 -s 0 -d 4 -p tcp -e 1540 -c 2 -a 0 -i 21 -k RTR
h -t 0.234823262 -s 0 -d 4 -p tcp -e 1540 -c 2 -a 0 -i 21 -k RTR
+ -t 0.248829637 -s 4 -d 24 -p tcp -e 1540 -c 2 -a 0 -i 12 -k RTR 
- -t 0.248829637 -s 4 -d 24 -p tcp -e 1540 -c 2 -a 0 -i 12 -k RTR
h -t 0.248829637 -s 4 -d 24 -p tcp -e 1540 -c 2 -a 0 -i 12 -k RTR
r -t 0.262715676 -s 24 -d 24 -p tcp -e 1540 -c 2 -a 0 -i 12 -k AGT
+ -t 0.262715676 -s 24 -d -1 -p ack -e 40 -c 2 -a 0 -i 22 -k AGT 
- -t 0.262715676 -s 24 -d -1 -p ack -e 40 -c 2 -a 0 -i 22 -k AGT
h -t 0.262715676 -s 24 -d -1 -p ack -e 40 -c 2 -a 0 -i 22 -k AGT
+ -t 0.262715676 -s 24 -d 4 -p ack -e 40 -c 2 -a 0 -i 22 -k RTR 
- -t 0.262715676 -s 24 -d 4 -p ack -e 40 -c 2 -a 0 -i 22 -k RTR
h -t 0.262715676 -s 24 -d 4 -p ack -e 40 -c 2 -a 0 -i 22 -k RTR
+ -t 0.264661715 -s 4 -d 0 -p ack -e 40 -c 2 -a 0 -i 22 -k RTR 
- -t 0.264661715 -s 4 -d 0 -p ack -e 40 -c 2 -a 0 -i 22 -k RTR
h -t 0.264661715 -s 4 -d 0 -p ack -e 40 -c 2 -a 0 -i 22 -k RTR
r -t 0.266968090 -s 0 -d 0 -p ack -e 40 -c 2 -a 0 -i 22 -k AGT
+ -t 0.266968090 -s 0 -d -1 -p tcp -e 1540 -c 2 -a 0 -i 23 -k AGT 
- -t 0.266968090 -s 0 -d -1 -p tcp -e 1540 -c 2 -a 0 -i 23 -k AGT
h -t 0.266968090 -s 0 -d -1 -p tcp -e 1540 -c 2 -a 0 -i 23 -k AGT
+ -t 0.266968090 -s 0 -d -1 -p tcp -e 1540 -c 2 -a 0 -i 24 -k AGT 
- -t 0.266968090 -s 0 -d -1 -p tcp -e 1540 -c 2 -a 0 -i 24 -k AGT
h -t 0.266968090 -s 0 -d -1 -p tcp -e 1540 -c 2 -a 0 -i 24 -k AGT
+ -t 0.266968090 -s 0 -d 4 -p tcp -e 1540 -c 2 -a 0 -i 23 -k RTR 
- -t 0.266968090 -s 0 -d 4 -p tcp -e 1540 -c 2 -a 0 -i 23 -k RTR
h -t 0.266968090 -s 0 -d 4 -p tcp -e 1540 -c 2 -a 0 -i 23 -k RTR
+ -t 0.266968090 -s 0 -d 4 -p tcp -e 1540 -c 2 -a 0 -i 24 -k RTR 
- -t 0.266968090 -s 0 -d 4 -p tcp -e 1540 -c 2 -a 0 -i 24 -k RTR
h -t 0.266968090 -s 0 -d 4 -p tcp -e 1540 -c 2 -a 0 -i 24 -k RTR
+ -t 0.280894465 -s 4 -d 24 -p tcp -e 1540 -c 2 -a 0 -i 13 -k RTR 
- -t 0.280894465 -s 4 -d 24 -p tcp -e 1540 -c 2 -a 0 -i 13 -k RTR
h -t 0.280894465 -s 4 -d 24 -p tcp -e 1540 -c 2 -a 0 -i 13 -k RTR
+ -t 0.295021632 -s 4 -d 24 -p tcp -e 1540 -c 2 -a 0 -i 16 -k RTR 
- -t 0.295021632 -s 4 -d 24 -p tcp -e 1540 -c 2 -a 0 -i 16 -k RTR
h -t 0.295021632 -s 4 -d 24 -p tcp -e 1540 -c 2 -a 0 -i 16 -k RTR
r -t 0.309007670 -s 24 -d 24 -p tcp -e 1540 -c 2 -a 0 -i 13 -k AGT
+ -t 0.309007670 -s 24 -d -1 -p ack -e 40 -c 2 -a 0 -i 25 -k AGT 
- -t 0.309007670 -s 24 -d -1 -p ack -e 40 -c 2 -a 0 -i 25 -k AGT
h -t 0.309007670 -s 24 -d -1 -p ack -e 40 -c 2 -a 0 -i 25 -k AGT
+ -t 0.309007670 -s 24 -d 4 -p ack -e 40 -c 2 -a 0 -i 25 -k RTR 
- -t 0.309007670 -s 24 -d 4 -p ack -e 40 -c 2 -a 0 -i 25 -k RTR
h -t 0.309007670 -s 24 -d 4 -p ack -e 40 -c 2 -a 0 -i 25 -k RTR
+ -t 0.311133709 -s 4 -d 0 -p ack -e 40 -c 2 -a 0 -i 25 -k RTR 
- -t 0.311133709 -s 4 -d 0 -p ack -e 40 -c 2 -a 0 -i 25 -k RTR
h -t 0.311133709 -s 4 -d 0 -p ack -e 40 -c 2 -a 0 -i 25 -k RTR
r -t 0.324999748 -s 24 -d 24 -p tcp -e 1540 -c 2 -a 0 -i 16 -k AGT
+ -t 0.324999748 -s 24 -d -1 -p ack -e 40 -c 2 -a 0 -i 26 -k AGT 
- -t 0.324999748 -s 24 -d -1 -p ack -e 40 -c 2 -a 0 -i 26 -k AGT
h -t 0.324999748 -s 24 -d -1 -p ack -e 40 -c 2 -a 0 -i 26 -k AGT
+ -t 0.324999748 -s 24 -d 4 -p ack -e 40 -c 2 -a 0 -i 26 -k RTR 
- -t 0.324999748 -s 24 -d 4 -p ack -e 40 -c 2 -a 0 -i 26 -k RTR
h -t 0.324999748 -s 24 -d 4 -p ack -e 40 -c 2 -a 0 -i 26 -k RTR
r -t 0.327046803 -s 0 -d 0 -p ack -e 40 -c 2 -a 0 -i 25 -k AGT
+ -t 0.327046803 -s 0 -d -1 -p tcp -e 1540 -c 2 -a 0 -i 27 -k AGT 
- -t 0.327046803 -s 0 -d -1 -p tcp -e 1540 -c 2 -a 0 -i 27 -k AGT
h -t 0.327046803 -s 0 -d -1 -p tcp -e 1540 -c 2 -a 0 -i 27 -k AGT
+ -t 0.327046803 -s 0 -d -1 -p tcp -e 1540 -c 2 -a 0 -i 28 -k AGT 
- -t 0.327046803 -s 0 -d -1 -p tcp -e 1540 -c 2 -a 0 -i 28 -k AGT
h -t 0.327046803 -s 0 -d -1 -p tcp -e 1540 -c 2 -a 0 -i 28 -k AGT
+ -t 0.327046803 -s 0 -d 4 -p tcp -e 1540 -c 2 -a 0 -i 27 -k RTR 
- -t 0.327046803 -s 0 -d 4 -p tcp -e 1540 -c 2 -a 0 -i 27 -k RTR
h -t 0.327046803 -s 0 -d 4 -p tcp -e 1540 -c 2 -a 0 -i 27 -k RTR
+ -t 0.327046803 -s 0 -d 4 -p tcp -e 1540 -c 2 -a 0 -i 28 -k RTR 
- -t 0.327046803 -s 0 -d 4 -p tcp -e 1540 -c 2 -a 0 -i 28 -k RTR
h -t 0.327046803 -s 0 -d 4 -p tcp -e 1540 -c 2 -a 0 -i 28 -k RTR
+ -t 0.341033178 -s 4 -d 24 -p tcp -e 1540 -c 2 -a 0 -i 17 -k RTR 
- -t 0.341033178 -s 4 -d 24 -p tcp -e 1540 -c 2 -a 0 -i 17 -k RTR
h -t 0.341033178 -s 4 -d 24 -p tcp -e 1540 -c 2 -a 0 -i 17 -k RTR
r -t 0.354899217 -s 24 -d 24 -p tcp -e 1540 -c 2 -a 0 -i 17 -k AGT
+ -t 0.354899217 -s 24 -d -1 -p ack -e 40 -c 2 -a 0 -i 29 -k AGT 
- -t 0.354899217 -s 24 -d -1 -p ack -e 40 -c 2 -a 0 -i 29 -k AGT
h -t 0.354899217 -s 24 -d -1 -p ack -e 40 -c 2 -a 0 -i 29 -k AGT
+ -t 0.354899217 -s 24 -d 4 -p ack -e 40 -c 2 -a 0 -i 29 -k RTR 
- -t 0.354899217 -s 24 -d 4 -p ack -e 40 -c 2 -a 0 -i 29 -k RTR
h -t 0.354899217 -s 24 -d 4 -p ack -e 40 -c 2 -a 0 -i 29 -k RTR
+ -t 0.357085256 -s 4 -d 0 -p ack -e 40 -c 2 -a 0 -i 26 -k RTR 
- -t 0.357085256 -s 4 -d 0 -p ack -e 40 -c 2 -a 0 -i 26 -k RTR
h -t 0.357085256 -s 4 -d 0 -p ack -e 40 -c 2 -a 0 -i 26 -k RTR
r -t 0.358991631 -s 0 -d 0 -p ack -e 40 -c 2 -a 0 -i 26 -k AGT
+ -t 0.358991631 -s 0 -d -1 -p tcp -e 1540 -c 2 -a 0 -i 30 -k AGT 
- -t 0.358991631 -s 0 -d -1 -p tcp -e 1540 -c 2 -a 0 -i 30 -k AGT
h -t 0.358991631 -s 0 -d -1 -p tcp -e 1540 -c 2 -a 0 -i 30 -k AGT
+ -t 0.358991631 -s 0 -d -1 -p tcp -e 1540 -c 2 -a 0 -i 31 -k AGT 
- -t 0.358991631 -s 0 -d -1 -p tcp -e 1540 -c 2 -a 0 -i 31 -k AGT
h -t 0.358991631 -s 0 -d -1 -p tcp -e 1540 -c 2 -a 0 -i 31 -k AGT
+ -t 0.358991631 -s 0 -d 4 -p tcp -e 1540 -c 2 -a 0 -i 30 -k RTR 
- -t 0.358991631 -s 0 -d 4 -p tcp -e 1540 -c 2 -a 0 -i 30 -k RTR
h -t 0.358991631 -s 0 -d 4 -p tcp -e 1540 -c 2 -a 0 -i 30 -k RTR
+ -t 0.358991631 -s 0 -d 4 -p tcp -e 1540 -c 2 -a 0 -i 31 -k RTR 
- -t 0.358991631 -s 0 -d 4 -p tcp -e 1540 -c 2 -a 0 -i 31 -k RTR
h -t 0.358991631 -s 0 -d 4 -p tcp -e 1540 -c 2 -a 0 -i 31 -k RTR
+ -t 0.372938006 -s 4 -d 24 -p tcp -e 1540 -c 2 -a 0 -i 18 -k RTR 
- -t 0.372938006 -s 4 -d 24 -p tcp -e 1540 -c 2 -a 0 -i 18 -k RTR
h -t 0.372938006 -s 4 -d 24 -p tcp -e 1540 -c 2 -a 0 -i 18 -k RTR
r -t 0.386924045 -s 24 -d 24 -p tcp -e 1540 -c 2 -a 0 -i 18 -k AGT
+ -t 0.386924045 -s 24 -d -1 -p ack -e 40 -c 2 -a 0 -i 32 -k AGT 
- -t 0.386924045 -s 24 -d -1 -p ack -e 40 -c 2 -a 0 -i 32 -k AGT
h -t 0.386924045 -s 24 -d -1 -p ack -e 40 -c 2 -a 0 -i 32 -k AGT
+ -t 0.386924045 -s 24 -d 4 -p ack -e 40 -c 2 -a 0 -i 32 -k RTR 
- -t 0.386924045 -s 24 -d 4 -p ack -e 40 -c 2 -a 0 -i 32 -k RTR
h -t 0.386924045 -s 24 -d 4 -p ack -e 40 -c 2 -a 0 -i 32 -k RTR
+ -t 0.388970084 -s 4 -d 0 -p ack -e 40 -c 2 -a 0 -i 29 -k RTR 
- -t 0.388970084 -s 4 -d 0 -p ack -e 40 -c 2 -a 0 -i 29 -k RTR
h -t 0.388970084 -s 4 -d 0 -p ack -e 40 -c 2 -a 0 -i 29 -k RTR
+ -t 0.402927211 -s 4 -d 24 -p tcp -e 1540 -c 2 -a 0 -i 19 -k RTR 
- -t 0.402927211 -s 4 -d 24 -p tcp -e 1540 -c 2 -a 0 -i 19 -k RTR
h -t 0.402927211 -s 4 -d 24 -p tcp -e 1540 -c 2 -a 0 -i 19 -k RTR
r -t 0.404773586 -s 0 -d 0 -p ack -e 40 -c 2 -a 0 -i 29 -k AGT
+ -t 0.404773586 -s 0 -d -1 -p tcp -e 1540 -c 2 -a 0 -i 33 -k AGT 
- -t 0.404773586 -s 0 -d -1 -p tcp -e 1540 -c 2 -a 0 -i 33 -k AGT
h -t 0.404773586 -s 0 -d -1 -p tcp -e 1540 -c 2 -a 0 -i 33 -k AGT
+ -t 0.404773586 -s 0 -d -1 -p tcp -e 1540 -c 2 -a 0 -i 34 -k AGT 
- -t 0.404773586 -s 0 -d -1 -p tcp -e 1540 -c 2 -a 0 -i 34 -k AGT
h -t 0.404773586 -s 0 -d -1 -p tcp -e 1540 -c 2 -a 0 -i 34 -k AGT
+ -t 0.404773586 -s 0 -d 4 -p tcp -e 1540 -c 2 -a 0 -i 33 -k RTR 
- -t 0.404773586 -s 0 -d 4 -p tcp -e 1540 -c 2 -a 0 -i 33 -k RTR
h -t 0.404773586 -s 0 -d 4 -p tcp -e 1540 -c 2 -a 0 -i 33 -k RTR
+ -t 0.404773586 -s 0 -d 4 -p tcp -e 1540 -c 2 -a 0 -i 34 -k RTR 
- -t 0.404773586 -s 0 -d 4 -p tcp -e 1540 -c 2 -a 0 -i 34 -k RTR
h -t 0.404773586 -s 0 -d 4 -p tcp -e 1540 -c 2 -a 0 -i 34 -k RTR
+ -t 0.418899961 -s 4 -d 24 -p tcp -e 1540 -c 2 -a 0 -i 20 -k RTR 
- -t 0.418899961 -s 4 -d 24 -p tcp -e 1540 -c 2 -a 0 -i 20 -k RTR
h -t 0.418899961 -s 4 -d 24 -p tcp -e 1540 -c 2 -a 0 -i 20 -k RTR
r -t 0.432846000 -s 24 -d 24 -p tcp -e 1540 -c 2 -a 0 -i 19 -k AGT
+ -t 0.432846000 -s 24 -d -1 -p ack -e 40 -c 2 -a 0 -i 35 -k AGT 
- -t 0.432846000 -s 24 -d -1 -p ack -e 40 -c 2 -a 0 -i 35 -k AGT
h -t 0.432846000 -s 24 -d -1 -p ack -e 40 -c 2 -a 0 -i 35 -k AGT
+ -t 0.432846000 -s 24 -d 4 -p ack -e 40 -c 2 -a 0 -i 35 -k RTR 
- -t 0.432846000 -s 24 -d 4 -p ack -e 40 -c 2 -a 0 -i 35 -k RTR
h -t 0.432846000 -s 24 -d 4 -p ack -e 40 -c 2 -a 0 -i 35 -k RTR
+ -t 0.434852038 -s 4 -d 0 -p ack -e 40 -c 2 -a 0 -i 32 -k RTR 
- -t 0.434852038 -s 4 -d 0 -p ack -e 40 -c 2 -a 0 -i 32 -k RTR
h -t 0.434852038 -s 4 -d 0 -p ack -e 40 -c 2 -a 0 -i 32 -k RTR
r -t 0.448818077 -s 24 -d 24 -p tcp -e 1540 -c 2 -a 0 -i 20 -k AGT
+ -t 0.448818077 -s 24 -d -1 -p ack -e 40 -c 2 -a 0 -i 36 -k AGT 
- -t 0.448818077 -s 24 -d -1 -p ack -e 40 -c 2 -a 0 -i 36 -k AGT
h -t 0.448818077 -s 24 -d -1 -p ack -e 40 -c 2 -a 0 -i 36 -k AGT
+ -t 0.448818077 -s 24 -d 4 -p ack -e 40 -c 2 -a 0 -i 36 -k RTR 
- -t 0.448818077 -s 24 -d 4 -p ack -e 40 -c 2 -a 0 -i 36 -k RTR
h -t 0.448818077 -s 24 -d 4 -p ack -e 40 -c 2 -a 0 -i 36 -k RTR
r -t 0.451551132 -s 0 -d 0 -p ack -e 40 -c 2 -a 0 -i 32 -k AGT
+ -t 0.451551132 -s 0 -d -1 -p tcp -e 1540 -c 2 -a 0 -i 37 -k AGT 
- -t 0.451551132 -s 0 -d -1 -p tcp -e 1540 -c 2 -a 0 -i 37 -k AGT
h -t 0.451551132 -s 0 -d -1 -p tcp -e 1540 -c 2 -a 0 -i 37 -k AGT
+ -t 0.451551132 -s 0 -d -1 -p tcp -e 1540 -c 2 -a 0 -i 38 -k AGT 
- -t 0.451551132 -s 0 -d -1 -p tcp -e 1540 -c 2 -a 0 -i 38 -k AGT
h -t 0.451551132 -s 0 -d -1 -p tcp -e 1540 -c 2 -a 0 -i 38 -k AGT
+ -t 0.451551132 -s 0 -d 4 -p tcp -e 1540 -c 2 -a 0 -i 37 -k RTR 
- -t 0.451551132 -s 0 -d 4 -p tcp -e 1540 -c 2 -a 0 -i 37 -k RTR
h -t 0.451551132 -s 0 -d 4 -p tcp -e 1540 -c 2 -a 0 -i 37 -k RTR
+ -t 0.451551132 -s 0 -d 4 -p tcp -e 1540 -c 2 -a 0 -i 38 -k RTR 
- -t 0.451551132 -s 0 -d 4 -p tcp -e 1540 -c 2 -a 0 -i 38 -k RTR
h -t 0.451551132 -s 0 -d 4 -p tcp -e 1540 -c 2 -a 0 -i 38 -k RTR
+ -t 0.465557507 -s 4 -d 24 -p tcp -e 1540 -c 2 -a 0 -i 21 -k RTR 
- -t 0.465557507 -s 4 -d 24 -p tcp -e 1540 -c 2 -a 0 -i 21 -k RTR
h -t 0.465557507 -s 4 -d 24 -p tcp -e 1540 -c 2 -a 0 -i 21 -k RTR
r -t 0.479443546 -s 24 -d 24 -p tcp -e 1540 -c 2 -a 0 -i 21 -k AGT
+ -t 0.479443546 -s 24 -d -1 -p ack -e 40 -c 2 -a 0 -i 39 -k AGT 
- -t 0.479443546 -s 24 -d -1 -p ack -e 40 -c 2 -a 0 -i 39 -k AGT
h -t 0.479443546 -s 24 -d -1 -p ack -e 40 -c 2 -a 0 -i 39 -k AGT
+ -t 0.479443546 -s 24 -d 4 -p ack -e 40 -c 2 -a 0 -i 39 -k RTR 
- -t 0.479443546 -s 24 -d 4 -p ack -e 40 -c 2 -a 0 -i 39 -k RTR
h -t 0.479443546 -s 24 -d 4 -p ack -e 40 -c 2 -a 0 -i 39 -k RTR
+ -t 0.494095352 -s 4 -d 24 -p tcp -e 1540 -c 2 -a 0 -i 23 -k RTR 
- -t 0.494095352 -s 4 -d 24 -p tcp -e 1540 -c 2 -a 0 -i 23 -k RTR
h -t 0.494095352 -s 4 -d 24 -p tcp -e 1540 -c 2 -a 0 -i 23 -k RTR
+ -t 0.507942519 -s 4 -d 24 -p tcp -e 1540 -c 2 -a 0 -i 24 -k RTR 
- -t 0.507942519 -s 4 -d 24 -p tcp -e 1540 -c 2 -a 0 -i 24 -k RTR
h -t 0.507942519 -s 4 -d 24 -p tcp -e 1540 -c 2 -a 0 -i 24 -k RTR
+ -t 0.521789686 -s 4 -d 24 -p tcp -e 1540 -c 2 -a 0 -i 27 -k RTR 
- -t 0.521789686 -s 4 -d 24 -p tcp -e 1540 -c 2 -a 0 -i 27 -k RTR
h -t 0.521789686 -s 4 -d 24 -p tcp -e 1540 -c 2 -a 0 -i 27 -k RTR
+ -t 0.535676853 -s 4 -d 24 -p tcp -e 1540 -c 2 -a 0 -i 28 -k RTR 
- -t 0.535676853 -s 4 -d 24 -p tcp -e 1540 -c 2 -a 0 -i 28 -k RTR
h -t 0.535676853 -s 4 -d 24 -p tcp -e 1540 -c 2 -a 0 -i 28 -k RTR
+ -t 0.537573531 -s 4 -d 0 -p ack -e 40 -c 2 -a 0 -i 35 -k RTR 
- -t 0.537573531 -s 4 -d 0 -p ack -e 40 -c 2 -a 0 -i 35 -k RTR
h -t 0.537573531 -s 4 -d 0 -p ack -e 40 -c 2 -a 0 -i 35 -k RTR
+ -t 0.539420250 -s 4 -d 0 -p ack -e 40 -c 2 -a 0 -i 36 -k RTR 
- -t 0.539420250 -s 4 -d 0 -p ack -e 40 -c 2 -a 0 -i 36 -k RTR
h -t 0.539420250 -s 4 -d 0 -p ack -e 40 -c 2 -a 0 -i 36 -k RTR
+ -t 0.541266968 -s 4 -d 0 -p ack -e 40 -c 2 -a 0 -i 39 -k RTR 
- -t 0.541266968 -s 4 -d 0 -p ack -e 40 -c 2 -a 0 -i 39 -k RTR
h -t 0.541266968 -s 4 -d 0 -p ack -e 40 -c 2 -a 0 -i 39 -k RTR
r -t 0.555313007 -s 24 -d 24 -p tcp -e 1540 -c 2 -a 0 -i 23 -k AGT
+ -t 0.555313007 -s 24 -d -1 -p ack -e 40 -c 2 -a 0 -i 40 -k AGT 
- -t 0.555313007 -s 24 -d -1 -p ack -e 40 -c 2 -a 0 -i 40 -k AGT
h -t 0.555313007 -s 24 -d -1 -p ack -e 40 -c 2 -a 0 -i 40 -k AGT
+ -t 0.555313007 -s 24 -d 4 -p ack -e 40 -c 2 -a 0 -i 40 -k RTR 
- -t 0.555313007 -s 24 -d 4 -p ack -e 40 -c 2 -a 0 -i 40 -k RTR
h -t 0.555313007 -s 24 -d 4 -p ack -e 40 -c 2 -a 0 -i 40 -k RTR
+ -t 0.557319046 -s 4 -d 0 -p ack -e 40 -c 2 -a 0 -i 40 -k RTR 
- -t 0.557319046 -s 4 -d 0 -p ack -e 40 -c 2 -a 0 -i 40 -k RTR