s 0.010000000 _0_ AGT  --- 0 tcp 40 [0 0 0 0] ------- [0:0 24:0 32 0] [0 0] 0 0
r 0.010000000 _0_ RTR  --- 0 tcp 40 [0 0 0 0] ------- [0:0 24:0 32 0] [0 0] 0 0
s 0.010000000 _0_ RTR  --- 0 AODV 48 [0 0 0 0] ------- [0:255 -1:255 30 0] [0x2 1 1 [24 0] [0 4]] (REQUEST)
r 0.010988203 _17_ RTR  --- 0 AODV 48 [0 ffffffff 0 800] ------- [0:255 -1:255 30 0] [0x2 1 1 [24 0] [0 4]] (REQUEST)
r 0.010988591 _14_ RTR  --- 0 AODV 48 [0 ffffffff 0 800] ------- [0:255 -1:255 30 0] [0x2 1 1 [24 0] [0 4]] (REQUEST)
r 0.010988792 _4_ RTR  --- 0 AODV 48 [0 ffffffff 0 800] ------- [0:255 -1:255 30 0] [0x2 1 1 [24 0] [0 4]] (REQUEST)
s 0.011869429 _17_ RTR  --- 0 AODV 48 [0 ffffffff 0 800] ------- [17:255 -1:255 29 0] [0x2 2 1 [24 0] [0 4]] (REQUEST)
r 0.012977632 _0_ RTR  --- 0 AODV 48 [0 ffffffff 11 800] ------- [17:255 -1:255 29 0] [0x2 2 1 [24 0] [0 4]] (REQUEST)
r 0.012978215 _14_ RTR  --- 0 AODV 48 [0 ffffffff 11 800] ------- [17:255 -1:255 29 0] [0x2 2 1 [24 0] [0 4]] (REQUEST)
s 0.015400325 _14_ RTR  --- 0 AODV 48 [0 ffffffff 0 800] ------- [14:255 -1:255 29 0] [0x2 2 1 [24 0] [0 4]] (REQUEST)
r 0.016588915 _0_ RTR  --- 0 AODV 48 [0 ffffffff e 800] ------- [14:255 -1:255 29 0] [0x2 2 1 [24 0] [0 4]] (REQUEST)
r 0.016588994 _10_ RTR  --- 0 AODV 48 [0 ffffffff e 800] ------- [14:255 -1:255 29 0] [0x2 2 1 [24 0] [0 4]] (REQUEST)
r 0.016589013 _22_ RTR  --- 0 AODV 48 [0 ffffffff e 800] ------- [14:255 -1:255 29 0] [0x2 2 1 [24 0] [0 4]] (REQUEST)
r 0.016589110 _17_ RTR  --- 0 AODV 48 [0 ffffffff e 800] ------- [14:255 -1:255 29 0] [0x2 2 1 [24 0] [0 4]] (REQUEST)
s 0.018980346 _4_ RTR  --- 0 AODV 48 [0 ffffffff 0 800] ------- [4:255 -1:255 29 0] [0x2 2 1 [24 0] [0 4]] (REQUEST)
s 0.019679784 _10_ RTR  --- 0 AODV 48 [0 ffffffff e 800] ------- [10:255 -1:255 28 0] [0x2 3 1 [24 0] [0 4]] (REQUEST)
r 0.019969026 _24_ RTR  --- 0 AODV 48 [0 ffffffff 4 800] ------- [4:255 -1:255 29 0] [0x2 2 1 [24 0] [0 4]] (REQUEST)
s 0.019969026 _24_ RTR  --- 0 AODV 44 [0 0 0 0] ------- [24:255 0:255 30 4] [0x4 1 [24 4] 10.000000] (REPLY)
r 0.019969083 _10_ RTR  --- 0 AODV 48 [0 ffffffff 4 800] ------- [4:255 -1:255 29 0] [0x2 2 1 [24 0] [0 4]] (REQUEST)
r 0.019969138 _0_ RTR  --- 0 AODV 48 [0 ffffffff 4 800] ------- [4:255 -1:255 29 0] [0x2 2 1 [24 0] [0 4]] (REQUEST)
r 0.024616783 _4_ RTR  --- 0 AODV 44 [13a 4 18 800] ------- [24:255 0:255 30 4] [0x4 1 [24 4] 10.000000] (REPLY)
f 0.024616783 _4_ RTR  --- 0 AODV 44 [13a 4 18 800] ------- [24:255 0:255 29 0] [0x4 2 [24 4] 10.000000] (REPLY)
s 0.024952248 _22_ RTR  --- 0 AODV 48 [0 ffffffff e 800] ------- [22:255 -1:255 28 0] [0x2 3 1 [24 0] [0 4]] (REQUEST)
r 0.026040069 _14_ RTR  --- 0 AODV 48 [0 ffffffff a 800] ------- [10:255 -1:255 28 0] [0x2 3 1 [24 0] [0 4]] (REQUEST)
r 0.026040137 _4_ RTR  --- 0 AODV 48 [0 ffffffff a 800] ------- [10:255 -1:255 28 0] [0x2 3 1 [24 0] [0 4]] (REQUEST)
r 0.030478679 _0_ RTR  --- 0 AODV 44 [13a 0 4 800] ------- [24:255 0:255 29 0] [0x4 2 [24 4] 10.000000] (REPLY)
s 0.030478679 _0_ RTR  --- 0 tcp 40 [0 0 0 0] ------- [0:0 24:0 30 4] [0 0] 0 0
r 0.032365054 _4_ RTR  --- 0 tcp 40 [13a 4 0 800] ------- [0:0 24:0 30 4] [0 0] 1 0
f 0.032365054 _4_ RTR  --- 0 tcp 40 [13a 4 0 800] ------- [0:0 24:0 29 24] [0 0] 1 0
r 0.034591093 _24_ AGT  --- 0 tcp 40 [13a 18 4 800] ------- [0:0 24:0 29 24] [0 0] 2 0
s 0.034591093 _24_ AGT  --- 1 ack 40 [0 0 0 0] ------- [24:0 0:0 32 0] [0 0] 0 0
r 0.034591093 _24_ RTR  --- 1 ack 40 [0 0 0 0] ------- [24:0 0:0 32 0] [0 0] 0 0
s 0.034591093 _24_ RTR  --- 1 ack 40 [0 0 0 0] ------- [24:0 0:0 30 4] [0 0] 0 0
r 0.036154402 _23_ RTR  --- 0 AODV 48 [0 ffffffff 16 800] ------- [22:255 -1:255 28 0] [0x2 3 1 [24 0] [0 4]] (REQUEST)
r 0.036154468 _13_ RTR  --- 0 AODV 48 [0 ffffffff 16 800] ------- [22:255 -1:255 28 0] [0x2 3 1 [24 0] [0 4]] (REQUEST)
r 0.036154552 _18_ RTR  --- 0 AODV 48 [0 ffffffff 16 800] ------- [22:255 -1:255 28 0] [0x2 3 1 [24 0] [0 4]] (REQUEST)
r 0.036154637 _14_ RTR  --- 0 AODV 48 [0 ffffffff 16 800] ------- [22:255 -1:255 28 0] [0x2 3 1 [24 0] [0 4]] (REQUEST)
r 0.038417131 _4_ RTR  --- 1 ack 40 [13a 4 18 800] ------- [24:0 0:0 30 4] [0 0] 1 0
f 0.038417131 _4_ RTR  --- 1 ack 40 [13a 4 18 800] ------- [24:0 0:0 29 0] [0 0] 1 0
s 0.038566659 _23_ RTR  --- 0 AODV 48 [0 ffffffff 16 800] ------- [23:255 -1:255 27 0] [0x2 4 1 [24 0] [0 4]] (REQUEST)
r 0.039594999 _18_ RTR  --- 0 AODV 48 [0 ffffffff 17 800] ------- [23:255 -1:255 27 0] [0x2 4 1 [24 0] [0 4]] (REQUEST)
r 0.039595112 _22_ RTR  --- 0 AODV 48 [0 ffffffff 17 800] ------- [23:255 -1:255 27 0] [0x2 4 1 [24 0] [0 4]] (REQUEST)
r 0.039595408 _13_ RTR  --- 0 AODV 48 [0 ffffffff 17 800] ------- [23:255 -1:255 27 0] [0x2 4 1 [24 0] [0 4]] (REQUEST)
r 0.041103506 _0_ AGT  --- 1 ack 40 [13a 0 4 800] ------- [24:0 0:0 29 0] [0 0] 2 0
s 0.041103506 _0_ AGT  --- 2 tcp 1540 [0 0 0 0] ------- [0:0 24:0 32 0] [1 0] 0 0
r 0.041103506 _0_ RTR  --- 2 tcp 1540 [0 0 0 0] ------- [0:0 24:0 32 0] [1 0] 0 0
s 0.041103506 _0_ AGT  --- 3 tcp 1540 [0 0 0 0] ------- [0:0 24:0 32 0] [2 0] 0 0
r 0.041103506 _0_ RTR  --- 3 tcp 1540 [0 0 0 0] ------- [0:0 24:0 32 0] [2 0] 0 0
s 0.041103506 _0_ RTR  --- 2 tcp 1540 [0 0 0 0] ------- [0:0 24:0 30 4] [1 0] 0 0
s 0.041103506 _0_ RTR  --- 3 tcp 1540 [0 0 0 0] ------- [0:0 24:0 30 4] [2 0] 0 0
s 0.042928041 _18_ RTR  --- 0 AODV 48 [0 ffffffff 16 800] ------- [18:255 -1:255 27 0] [0x2 4 1 [24 0] [0 4]] (REQUEST)
s 0.044665534 _13_ RTR  --- 0 AODV 48 [0 ffffffff 16 800] ------- [13:255 -1:255 27 0] [0x2 4 1 [24 0] [0 4]] (REQUEST)
r 0.055449882 _4_ RTR  --- 2 tcp 1540 [13a 4 0 800] ------- [0:0 24:0 30 4] [1 0] 1 0
f 0.055449882 _4_ RTR  --- 2 tcp 1540 [13a 4 0 800] ------- [0:0 24:0 29 24] [1 0] 1 0
r 0.056913191 _23_ RTR  --- 0 AODV 48 [0 ffffffff 12 800] ------- [18:255 -1:255 27 0] [0x2 4 1 [24 0] [0 4]] (REQUEST)
r 0.056913470 _13_ RTR  --- 0 AODV 48 [0 ffffffff 12 800] ------- [18:255 -1:255 27 0] [0x2 4 1 [24 0] [0 4]] (REQUEST)
r 0.058191989 _22_ RTR  --- 0 AODV 48 [0 ffffffff d 800] ------- [13:255 -1:255 27 0] [0x2 4 1 [24 0] [0 4]] (REQUEST)
r 0.058192089 _18_ RTR  --- 0 AODV 48 [0 ffffffff d 800] ------- [13:255 -1:255 27 0] [0x2 4 1 [24 0] [0 4]] (REQUEST)
r 0.058192219 _23_ RTR  --- 0 AODV 48 [0 ffffffff d 800] ------- [13:255 -1:255 27 0] [0x2 4 1 [24 0] [0 4]] (REQUEST)
r 0.069335920 _24_ AGT  --- 2 tcp 1540 [13a 18 4 800] ------- [0:0 24:0 29 24] [1 0] 2 0
s 0.069335920 _24_ AGT  --- 4 ack 40 [0 0 0 0] ------- [24:0 0:0 32 0] [1 0] 0 0
r 0.069335920 _24_ RTR  --- 4 ack 40 [0 0 0 0] ------- [24:0 0:0 32 0] [1 0] 0 0
s 0.069335920 _24_ RTR  --- 4 ack 40 [0 0 0 0] ------- [24:0 0:0 30 4] [1 0] 0 0
r 0.071441959 _4_ RTR  --- 4 ack 40 [13a 4 18 800] ------- [24:0 0:0 30 4] [1 0] 1 0
f 0.071441959 _4_ RTR  --- 4 ack 40 [13a 4 18 800] ------- [24:0 0:0 29 0] [1 0] 1 0
r 0.085399086 _4_ RTR  --- 3 tcp 1540 [13a 4 0 800] ------- [0:0 24:0 30 4] [2 0] 1 0
f 0.085399086 _4_ RTR  --- 3 tcp 1540 [13a 4 0 800] ------- [0:0 24:0 29 24] [2 0] 1 0
r 0.087385461 _0_ AGT  --- 4 ack 40 [13a 0 4 800] ------- [24:0 0:0 29 0] [1 0] 2 0
s 0.087385461 _0_ AGT  --- 5 tcp 1540 [0 0 0 0] ------- [0:0 24:0 32 0] [3 0] 0 0
r 0.087385461 _0_ RTR  --- 5 tcp 1540 [0 0 0 0] ------- [0:0 24:0 32 0] [3 0] 0 0
s 0.087385461 _0_ AGT  --- 6 tcp 1540 [0 0 0 0] ------- [0:0 24:0 32 0] [4 0] 0 0
r 0.087385461 _0_ RTR  --- 6 tcp 1540 [0 0 0 0] ------- [0:0 24:0 32 0] [4 0] 0 0
s 0.087385461 _0_ RTR  --- 5 tcp 1540 [0 0 0 0] ------- [0:0 24:0 30 4] [3 0] 0 0
s 0.087385461 _0_ RTR  --- 6 tcp 1540 [0 0 0 0] ------- [0:0 24:0 30 4] [4 0] 0 0
r 0.101431836 _4_ RTR  --- 5 tcp 1540 [13a 4 0 800] ------- [0:0 24:0 30 4] [3 0] 1 0
f 0.101431836 _4_ RTR  --- 5 tcp 1540 [13a 4 0 800] ------- [0:0 24:0 29 24] [3 0] 1 0
r 0.115357875 _24_ AGT  --- 3 tcp 1540 [13a 18 4 800] ------- [0:0 24:0 29 24] [2 0] 2 0
s 0.115357875 _24_ AGT  --- 7 ack 40 [0 0 0 0] ------- [24:0 0:0 32 0] [2 0] 0 0
r 0.115357875 _24_ RTR  --- 7 ack 40 [0 0 0 0] ------- [24:0 0:0 32 0] [2 0] 0 0
s 0.115357875 _24_ RTR  --- 7 ack 40 [0 0 0 0] ------- [24:0 0:0 30 4] [2 0] 0 0
r 0.130231722 _4_ RTR  --- 6 tcp 1540 [13a 4 0 800] ------- [0:0 24:0 30 4] [4 0] 1 0
f 0.130231722 _4_ RTR  --- 6 tcp 1540 [13a 4 0 800] ------- [0:0 24:0 29 24] [4 0] 1 0
r 0.144377760 _24_ AGT  --- 5 tcp 1540 [13a 18 4 800] ------- [0:0 24:0 29 24] [3 0] 2 0
s 0.144377760 _24_ AGT  --- 8 ack 40 [0 0 0 0] ------- [24:0 0:0 32 0] [3 0] 0 0
r 0.144377760 _24_ RTR  --- 8 ack 40 [0 0 0 0] ------- [24:0 0:0 32 0] [3 0] 0 0
s 0.144377760 _24_ RTR  --- 8 ack 40 [0 0 0 0] ------- [24:0 0:0 30 4] [3 0] 0 0
r 0.158444479 _24_ AGT  --- 6 tcp 1540 [13a 18 4 800] ------- [0:0 24:0 29 24] [4 0] 2 0
s 0.158444479 _24_ AGT  --- 9 ack 40 [0 0 0 0] ------- [24:0 0:0 32 0] [4 0] 0 0
r 0.158444479 _24_ RTR  --- 9 ack 40 [0 0 0 0] ------- [24:0 0:0 32 0] [4 0] 0 0
s 0.158444479 _24_ RTR  --- 9 ack 40 [0 0 0 0] ------- [24:0 0:0 30 4] [4 0] 0 0
r 0.160610518 _4_ RTR  --- 7 ack 40 [13a 4 18 800] ------- [24:0 0:0 30 4] [2 0] 1 0
f 0.160610518 _4_ RTR  --- 7 ack 40 [13a 4 18 800] ------- [24:0 0:0 29 0] [2 0] 1 0
r 0.162457236 _4_ RTR  --- 8 ack 40 [13a 4 18 800] ------- [24:0 0:0 30 4] [3 0] 1 0
f 0.162457236 _4_ RTR  --- 8 ack 40 [13a 4 18 800] ------- [24:0 0:0 29 0] [3 0] 1 0
r 0.164543611 _0_ AGT  --- 7 ack 40 [13a 0 4 800] ------- [24:0 0:0 29 0] [2 0] 2 0
s 0.164543611 _0_ AGT  --- 10 tcp 1540 [0 0 0 0] ------- [0:0 24:0 32 0] [5 0] 0 0
r 0.164543611 _0_ RTR  --- 10 tcp 1540 [0 0 0 0] ------- [0:0 24:0 32 0] [5 0] 0 0
s 0.164543611 _0_ AGT  --- 11 tcp 1540 [0 0 0 0] ------- [0:0 24:0 32 0] [6 0] 0 0
r 0.164543611 _0_ RTR  --- 11 tcp 1540 [0 0 0 0] ------- [0:0 24:0 32 0] [6 0] 0 0
s 0.164543611 _0_ RTR  --- 10 tcp 1540 [0 0 0 0] ------- [0:0 24:0 30 4] [5 0] 0 0
s 0.164543611 _0_ RTR  --- 11 tcp 1540 [0 0 0 0] ------- [0:0 24:0 30 4] [6 0] 0 0
r 0.166490778 _0_ AGT  --- 8 ack 40 [13a 0 4 800] ------- [24:0 0:0 29 0] [3 0] 2 0
s 0.166490778 _0_ AGT  --- 12 tcp 1540 [0 0 0 0] ------- [0:0 24:0 32 0] [7 0] 0 0
r 0.166490778 _0_ RTR  --- 12 tcp 1540 [0 0 0 0] ------- [0:0 24:0 32 0] [7 0] 0 0
s 0.166490778 _0_ AGT  --- 13 tcp 1540 [0 0 0 0] ------- [0:0 24:0 32 0] [8 0] 0 0
r 0.166490778 _0_ RTR  --- 13 tcp 1540 [0 0 0 0] ------- [0:0 24:0 32 0] [8 0] 0 0
s 0.166490778 _0_ RTR  --- 12 tcp 1540 [0 0 0 0] ------- [0:0 24:0 30 4] [7 0] 0 0
s 0.166490778 _0_ RTR  --- 13 tcp 1540 [0 0 0 0] ------- [0:0 24:0 30 4] [8 0] 0 0
r 0.180437153 _4_ RTR  --- 10 tcp 1540 [13a 4 0 800] ------- [0:0 24:0 30 4] [5 0] 1 0
f 0.180437153 _4_ RTR  --- 10 tcp 1540 [13a 4 0 800] ------- [0:0 24:0 29 24] [5 0] 1 0
r 0.194304320 _4_ RTR  --- 11 tcp 1540 [13a 4 0 800] ------- [0:0 24:0 30 4] [6 0] 1 0
f 0.194304320 _4_ RTR  --- 11 tcp 1540 [13a 4 0 800] ------- [0:0 24:0 29 24] [6 0] 1 0
r 0.208270359 _24_ AGT  --- 10 tcp 1540 [13a 18 4 800] ------- [0:0 24:0 29 24] [5 0] 2 0
s 0.208270359 _24_ AGT  --- 14 ack 40 [0 0 0 0] ------- [24:0 0:0 32 0] [5 0] 0 0
r 0.208270359 _24_ RTR  --- 14 ack 40 [0 0 0 0] ------- [24:0 0:0 32 0] [5 0] 0 0
s 0.208270359 _24_ RTR  --- 14 ack 40 [0 0 0 0] ------- [24:0 0:0 30 4] [5 0] 0 0
r 0.222217077 _24_ AGT  --- 11 tcp 1540 [13a 18 4 800] ------- [0:0 24:0 29 24] [6 0] 2 0
s 0.222217077 _24_ AGT  --- 15 ack 40 [0 0 0 0] ------- [24:0 0:0 32 0] [6 0] 0 0
r 0.222217077 _24_ RTR  --- 15 ack 40 [0 0 0 0] ------- [24:0 0:0 32 0] [6 0] 0 0
s 0.222217077 _24_ RTR  --- 15 ack 40 [0 0 0 0] ------- [24:0 0:0 30 4] [6 0] 0 0
r 0.224063116 _4_ RTR  --- 9 ack 40 [13a 4 18 800] ------- [24:0 0:0 30 4] [4 0] 1 0
f 0.224063116 _4_ RTR  --- 9 ack 40 [13a 4 18 800] ------- [24:0 0:0 29 0] [4 0] 1 0
r 0.225989835 _4_ RTR  --- 14 ack 40 [13a 4 18 800] ------- [24:0 0:0 30 4] [5 0] 1 0
f 0.225989835 _4_ RTR  --- 14 ack 40 [13a 4 18 800] ------- [24:0 0:0 29 0] [5 0] 1 0
r 0.227896553 _4_ RTR  --- 15 ack 40 [13a 4 18 800] ------- [24:0 0:0 30 4] [6 0] 1 0
f 0.227896553 _4_ RTR  --- 15 ack 40 [13a 4 18 800] ------- [24:0 0:0 29 0] [6 0] 1 0
r 0.229742928 _0_ AGT  --- 9 ack 40 [13a 0 4 800] ------- [24:0 0:0 29 0] [4 0] 2 0
s 0.229742928 _0_ AGT  --- 16 tcp 1540 [0 0 0 0] ------- [0:0 24:0 32 0] [9 0] 0 0
r 0.229742928 _0_ RTR  --- 16 tcp 1540 [0 0 0 0] ------- [0:0 24:0 32 0] [9 0] 0 0
s 0.229742928 _0_ AGT  --- 17 tcp 1540 [0 0 0 0] ------- [0:0 24:0 32 0] [10 0] 0 0
r 0.229742928 _0_ RTR  --- 17 tcp 1540 [0 0 0 0] ------- [0:0 24:0 32 0] [10 0] 0 0
s 0.229742928 _0_ RTR  --- 16 tcp 1540 [0 0 0 0] ------- [0:0 24:0 30 4] [9 0] 0 0
s 0.229742928 _0_ RTR  --- 17 tcp 1540 [0 0 0 0] ------- [0:0 24:0 30 4] [10 0] 0 0
r 0.231770095 _0_ AGT  --- 14 ack 40 [13a 0 4 800] ------- [24:0 0:0 29 0] [5 0] 2 0
s 0.231770095 _0_ AGT  --- 18 tcp 1540 [0 0 0 0] ------- [0:0 24:0 32 0] [11 0] 0 0
r 0.231770095 _0_ RTR  --- 18 tcp 1540 [0 0 0 0] ------- [0:0 24:0 32 0] [11 0] 0 0
s 0.231770095 _0_ AGT  --- 19 tcp 1540 [0 0 0 0] ------- [0:0 24:0 32 0] [12 0] 0 0
r 0.231770095 _0_ RTR  --- 19 tcp 1540 [0 0 0 0] ------- [0:0 24:0 32 0] [12 0] 0 0
s 0.231770095 _0_ RTR  --- 18 tcp 1540 [0 0 0 0] ------- [0:0 24:0 30 4] [11 0] 0 0
s 0.231770095 _0_ RTR  --- 19 tcp 1540 [0 0 0 0] ------- [0:0 24:0 30 4] [12 0] 0 0
r 0.234823262 _0_ AGT  --- 15 ack 40 [13a 0 4 800] ------- [24:0 0:0 29 0] [6 0] 2 0
s 0.234823262 _0_ AGT  --- 20 tcp 1540 [0 0 0 0] ------- [0:0 24:0 32 0] [13 0] 0 0
r 0.234823262 _0_ RTR  --- 20 tcp 1540 [0 0 0 0] ------- [0:0 24:0 32 0] [13 0] 0 0
s 0.234823262 _0_ AGT  --- 21 tcp 1540 [0 0 0 0] ------- [0:0 24:0 32 0] [14 0] 0 0
r 0.234823262 _0_ RTR  --- 21 tcp 1540 [0 0 0 0] ------- [0:0 24:0 32 0] [14 0] 0 0
s 0.234823262 _0_ RTR  --- 20 tcp 1540 [0 0 0 0] ------- [0:0 24:0 30 4] [13 0] 0 0
s 0.234823262 _0_ RTR  --- 21 tcp 1540 [0 0 0 0] ------- [0:0 24:0 30 4] [14 0] 0 0
r 0.248829637 _4_ RTR  --- 12 tcp 1540 [13a 4 0 800] ------- [0:0 24:0 30 4] [7 0] 1 0
f 0.248829637 _4_ RTR  --- 12 tcp 1540 [13a 4 0 800] ------- [0:0 24:0 29 24] [7 0] 1 0
r 0.262715676 _24_ AGT  --- 12 tcp 1540 [13a 18 4 800] ------- [0:0 24:0 29 24] [7 0] 2 0
s 0.262715676 _24_ AGT  --- 22 ack 40 [0 0 0 0] ------- [24:0 0:0 32 0] [7 0] 0 0
r 0.262715676 _24_ RTR  --- 22 ack 40 [0 0 0 0] ------- [24:0 0:0 32 0] [7 0] 0 0
s 0.262715676 _24_ RTR  --- 22 ack 40 [0 0 0 0] ------- [24:0 0:0 30 4] [7 0] 0 0
r 0.264661715 _4_ RTR  --- 22 ack 40 [13a 4 18 800] ------- [24:0 0:0 30 4] [7 0] 1 0
f 0.264661715 _4_ RTR  --- 22 ack 40 [13a 4 18 800] ------- [24:0 0:0 29 0] [7 0] 1 0
r 0.266968090 _0_ AGT  --- 22 ack 40 [13a 0 4 800] ------- [24:0 0:0 29 0] [7 0] 2 0
s 0.266968090 _0_ AGT  --- 23 tcp 1540 [0 0 0 0] ------- [0:0 24:0 32 0] [15 0] 0 0
r 0.266968090 _0_ RTR  --- 23 tcp 1540 [0 0 0 0] ------- [0:0 24:0 32 0] [15 0] 0 0
s 0.266968090 _0_ AGT  --- 24 tcp 1540 [0 0 0 0] ------- [0:0 24:0 32 0] [16 0] 0 0
r 0.266968090 _0_ RTR  --- 24 tcp 1540 [0 0 0 0] ------- [0:0 24:0 32 0] [16 0] 0 0
s 0.266968090 _0_ RTR  --- 23 tcp 1540 [0 0 0 0] ------- [0:0 24:0 30 4] [15 0] 0 0
s 0.266968090 _0_ RTR  --- 24 tcp 1540 [0 0 0 0] ------- [0:0 24:0 30 4] [16 0] 0 0
r 0.280894465 _4_ RTR  --- 13 tcp 1540 [13a 4 0 800] ------- [0:0 24:0 30 4] [8 0] 1 0
f 0.280894465 _4_ RTR  --- 13 tcp 1540 [13a 4 0 800] ------- [0:0 24:0 29 24] [8 0] 1 0
r 0.295021632 _4_ RTR  --- 16 tcp 1540 [13a 4 0 800] ------- [0:0 24:0 30 4] [9 0] 1 0
f 0.295021632 _4_ RTR  --- 16 tcp 1540 [13a 4 0 800] ------- [0:0 24:0 29 24] [9 0] 1 0
r 0.309007670 _24_ AGT  --- 13 tcp 1540 [13a 18 4 800] ------- [0:0 24:0 29 24] [8 0] 2 0
s 0.309007670 _24_ AGT  --- 25 ack 40 [0 0 0 0] ------- [24:0 0:0 32 0] [8 0] 0 0
r 0.309007670 _24_ RTR  --- 25 ack 40 [0 0 0 0] ------- [24:0 0:0 32 0] [8 0] 0 0
s 0.309007670 _24_ RTR  --- 25 ack 40 [0 0 0 0] ------- [24:0 0:0 30 4] [8 0] 0 0
r 0.311133709 _4_ RTR  --- 25 ack 40 [13a 4 18 800] ------- [24:0 0:0 30 4] [8 0] 1 0
f 0.311133709 _4_ RTR  --- 25 ack 40 [13a 4 18 800] ------- [24:0 0:0 29 0] [8 0] 1 0
r 0.324999748 _24_ AGT  --- 16 tcp 1540 [13a 18 4 800] ------- [0:0 24:0 29 24] [9 0] 2 0
s 0.324999748 _24_ AGT  --- 26 ack 40 [0 0 0 0] ------- [24:0 0:0 32 0] [9 0] 0 0
r 0.324999748 _24_ RTR  --- 26 ack 40 [0 0 0 0] ------- [24:0 0:0 32 0] [9 0] 0 0
s 0.324999748 _24_ RTR  --- 26 ack 40 [0 0 0 0] ------- [24:0 0:0 30 4] [9 0] 0 0
r 0.327046803 _0_ AGT  --- 25 ack 40 [13a 0 4 800] ------- [24:0 0:0 29 0] [8 0] 2 0
s 0.327046803 _0_ AGT  --- 27 tcp 1540 [0 0 0 0] ------- [0:0 24:0 32 0] [17 0] 0 0
r 0.327046803 _0_ RTR  --- 27 tcp 1540 [0 0 0 0] ------- [0:0 24:0 32 0] [17 0] 0 0
s 0.327046803 _0_ AGT  --- 28 tcp 1540 [0 0 0 0] ------- [0:0 24:0 32 0] [18 0] 0 0
r 0.327046803 _0_ RTR  --- 28 tcp 1540 [0 0 0 0] ------- [0:0 24:0 32 0] [18 0] 0 0
s 0.327046803 _0_ RTR  --- 27 tcp 1540 [0 0 0 0] ------- [0:0 24:0 30 4] [17 0] 0 0
s 0.327046803 _0_ RTR  --- 28 tcp 1540 [0 0 0 0] ------- [0:0 24:0 30 4] [18 0] 0 0
r 0.341033178 _4_ RTR  --- 17 tcp 1540 [13a 4 0 800] ------- [0:0 24:0 30 4] [10 0] 1 0
f 0.341033178 _4_ RTR  --- 17 tcp 1540 [13a 4 0 800] ------- [0:0 24:0 29 24] [10 0] 1 0
r 0.354899217 _24_ AGT  --- 17 tcp 1540 [13a 18 4 800] ------- [0:0 24:0 29 24] [10 0] 2 0
s 0.354899217 _24_ AGT  --- 29 ack 40 [0 0 0 0] ------- [24:0 0:0 32 0] [10 0] 0 0
r 0.354899217 _24_ RTR  --- 29 ack 40 [0 0 0 0] ------- [24:0 0:0 32 0] [10 0] 0 0
s 0.354899217 _24_ RTR  --- 29 ack 40 [0 0 0 0] ------- [24:0 0:0 30 4] [10 0] 0 0
r 0.357085256 _4_ RTR  --- 26 ack 40 [13a 4 18 800] ------- [24:0 0:0 30 4] [9 0] 1 0
f 0.357085256 _4_ RTR  --- 26 ack 40 [13a 4 18 800] ------- [24:0 0:0 29 0] [9 0] 1 0
r 0.358991631 _0_ AGT  --- 26 ack 40 [13a 0 4 800] ------- [24:0 0:0 29 0] [9 0] 2 0
s 0.358991631 _0_ AGT  --- 30 tcp 1540 [0 0 0 0] ------- [0:0 24:0 32 0] [19 0] 0 0
r 0.358991631 _0_ RTR  --- 30 tcp 1540 [0 0 0 0] ------- [0:0 24:0 32 0] [19 0] 0 0
s 0.358991631 _0_ AGT  --- 31 tcp 1540 [0 0 0 0] ------- [0:0 24:0 32 0] [20 0] 0 0
r 0.358991631 _0_ RTR  --- 31 tcp 1540 [0 0 0 0] ------- [0:0 24:0 32 0] [20 0] 0 0
s 0.358991631 _0_ RTR  --- 30 tcp 1540 [0 0 0 0] ------- [0:0 24:0 30 4] [19 0] 0 0
s 0.358991631 _0_ RTR  --- 31 tcp 1540 [0 0 0 0] ------- [0:0 24:0 30 4] [20 0] 0 0
r 0.372938006 _4_ RTR  --- 18 tcp 1540 [13a 4 0 800] ------- [0:0 24:0 30 4] [11 0] 1 0
f 0.372938006 _4_ RTR  --- 18 tcp 1540 [13a 4 0 800] ------- [0:0 24:0 29 24] [11 0] 1 0
r 0.386924045 _24_ AGT  --- 18 tcp 1540 [13a 18 4 800] ------- [0:0 24:0 29 24] [11 0] 2 0
s 0.386924045 _24_ AGT  --- 32 ack 40 [0 0 0 0] ------- [24:0 0:0 32 0] [11 0] 0 0
r 0.386924045 _24_ RTR  --- 32 ack 40 [0 0 0 0] ------- [24:0 0:0 32 0] [11 0] 0 0
s 0.386924045 _24_ RTR  --- 32 ack 40 [0 0 0 0] ------- [24:0 0:0 30 4] [11 0] 0 0
r 0.388970084 _4_ RTR  --- 29 ack 40 [13a 4 18 800] ------- [24:0 0:0 30 4] [10 0] 1 0
f 0.388970084 _4_ RTR  --- 29 ack 40 [13a 4 18 800] ------- [24:0 0:0 29 0] [10 0] 1 0
r 0.402927211 _4_ RTR  --- 19 tcp 1540 [13a 4 0 800] ------- [0:0 24:0 30 4] [12 0] 1 0
f 0.402927211 _4_ RTR  --- 19 tcp 1540 [13a 4 0 800] ------- [0:0 24:0 29 24] [12 0] 1 0
r 0.404773586 _0_ AGT  --- 29 ack 40 [13a 0 4 800] ------- [24:0 0:0 29 0] [10 0] 2 0
s 0.404773586 _0_ AGT  --- 33 tcp 1540 [0 0 0 0] ------- [0:0 24:0 32 0] [21 0] 0 0
r 0.404773586 _0_ RTR  --- 33 tcp 1540 [0 0 0 0] ------- [0:0 24:0 32 0] [21 0] 0 0
s 0.404773586 _0_ AGT  --- 34 tcp 1540 [0 0 0 0] ------- [0:0 24:0 32 0] [22 0] 0 0
r 0.404773586 _0_ RTR  --- 34 tcp 1540 [0 0 0 0] ------- [0:0 24:0 32 0] [22 0] 0 0
s 0.404773586 _0_ RTR  --- 33 tcp 1540 [0 0 0 0] ------- [0:0 24:0 30 4] [21 0] 0 0
s 0.404773586 _0_ RTR  --- 34 tcp 1540 [0 0 0 0] ------- [0:0 24:0 30 4] [22 0] 0 0
r 0.418899961 _4_ RTR  --- 20 tcp 1540 [13a 4 0 800] ------- [0:0 24:0 30 4] [13 0] 1 0
f 0.418899961 _4_ RTR  --- 20 tcp 1540 [13a 4 0 800] ------- [0:0 24:0 29 24] [13 0] 1 0
r 0.432846000 _24_ AGT  --- 19 tcp 1540 [13a 18 4 800] ------- [0:0 24:0 29 24] [12 0] 2 0
s 0.432846000 _24_ AGT  --- 35 ack 40 [0 0 0 0] ------- [24:0 0:0 32 0] [12 0] 0 0
r 0.432846000 _24_ RTR  --- 35 ack 40 [0 0 0 0] ------- [24:0 0:0 32 0] [12 0] 0 0
s 0.432846000 _24_ RTR  --- 35 ack 40 [0 0 0 0] ------- [24:0 0:0 30 4] [12 0] 0 0
r 0.434852038 _4_ RTR  --- 32 ack 40 [13a 4 18 800] ------- [24:0 0:0 30 4] [11 0] 1 0
f 0.434852038 _4_ RTR  --- 32 ack 40 [13a 4 18 800] ------- [24:0 0:0 29 0] [11 0] 1 0
r 0.448818077 _24_ AGT  --- 20 tcp 1540 [13a 18 4 800] ------- [0:0 24:0 29 24] [13 0] 2 0
s 0.448818077 _24_ AGT  --- 36 ack 40 [0 0 0 0] ------- [24:0 0:0 32 0] [13 0] 0 0
r 0.448818077 _24_ RTR  --- 36 ack 40 [0 0 0 0] ------- [24:0 0:0 32 0] [13 0] 0 0
s 0.448818077 _24_ RTR  --- 36 ack 40 [0 0 0 0] ------- [24:0 0:0 30 4] [13 0] 0 0
r 0.451551132 _0_ AGT  --- 32 ack 40 [13a 0 4 800] ------- [24:0 0:0 29 0] [11 0] 2 0
s 0.451551132 _0_ AGT  --- 37 tcp 1540 [0 0 0 0] ------- [0:0 24:0 32 0] [23 0] 0 0
r 0.451551132 _0_ RTR  --- 37 tcp 1540 [0 0 0 0] ------- [0:0 24:0 32 0] [23 0] 0 0
s 0.451551132 _0_ AGT  --- 38 tcp 1540 [0 0 0 0] ------- [0:0 24:0 32 0] [24 0] 0 0
r 0.451551132 _0_ RTR  --- 38 tcp 1540 [0 0 0 0] ------- [0:0 24:0 32 0] [24 0] 0 0
s 0.451551132 _0_ RTR  --- 37 tcp 1540 [0 0 0 0] ------- [0:0 24:0 30 4] [23 0] 0 0
s 0.451551132 _0_ RTR  --- 38 tcp 1540 [0 0 0 0] ------- [0:0 24:0 30 4] [24 0] 0 0
r 0.465557507 _4_ RTR  --- 21 tcp 1540 [13a 4 0 800] ------- [0:0 24:0 30 4] [14 0] 1 0
f 0.465557507 _4_ RTR  --- 21 tcp 1540 [13a 4 0 800] ------- [0:0 24:0 29 24] [14 0] 1 0
r 0.479443546 _24_ AGT  --- 21 tcp 1540 [13a 18 4 800] ------- [0:0 24:0 29 24] [14 0] 2 0
s 0.479443546 _24_ AGT  --- 39 ack 40 [0 0 0 0] ------- [24:0 0:0 32 0] [14 0] 0 0
r 0.479443546 _24_ RTR  --- 39 ack 40 [0 0 0 0] ------- [24:0 0:0 32 0] [14 0] 0 0
s 0.479443546 _24_ RTR  --- 39 ack 40 [0 0 0 0] ------- [24:0 0:0 30 4] [14 0] 0 0
r 0.494095352 _4_ RTR  --- 23 tcp 1540 [13a 4 0 800] ------- [0:0 24:0 30 4] [15 0] 1 0
f 0.494095352 _4_ RTR  --- 23 tcp 1540 [13a 4 0 800] ------- [0:0 24:0 29 24] [15 0] 1 0
r 0.507942519 _4_ RTR  --- 24 tcp 1540 [13a 4 0 800] ------- [0:0 24:0 30 4] [16 0] 1 0
f 0.507942519 _4_ RTR  --- 24 tcp 1540 [13a 4 0 800] ------- [0:0 24:0 29 24] [16 0] 1 0
r 0.521789686 _4_ RTR  --- 27 tcp 1540 [13a 4 0 800] ------- [0:0 24:0 30 4] [17 0] 1 0
f 0.521789686 _4_ RTR  --- 27 tcp 1540 [13a 4 0 800] ------- [0:0 24:0 29 24] [17 0] 1 0
r 0.535676853 _4_ RTR  --- 28 tcp 1540 [13a 4 0 800] ------- [0:0 24:0 30 4] [18 0] 1 0
f 0.535676853 _4_ RTR  --- 28 tcp 1540 [13a 4 0 800] ------- [0:0 24:0 29 24] [18 0] 1 0
r 0.537573531 _4_ RTR  --- 35 ack 40 [13a 4 18 800] ------- [24:0 0:0 30 4] [12 0] 1 0
f 0.537573531 _4_ RTR  --- 35 ack 40 [13a 4 18 800] ------- [24:0 0:0 29 0] [12 0] 1 0
r 0.539420250 _4_ RTR  --- 36 ack 40 [13a 4 18 800] ------- [24:0 0:0 30 4] [13 0] 1 0
f 0.539420250 _4_ RTR  --- 36 ack 40 [13a 4 18 800] ------- [24:0 0:0 29 0] [13 0] 1 0
r 0.541266968 _4_ RTR  --- 39 ack 40 [13a 4 18 800] ------- [24:0 0:0 30 4] [14 0] 1 0
f 0.541266968 _4_ RTR  --- 39 ack 40 [13a 4 18 800] ------- [24:0 0:0 29 0] [14 0] 1 0
r 0.555313007 _24_ AGT  --- 23 tcp 1540 [13a 18 4 800] ------- [0:0 24:0 29 24] [15 0] 2 0
s 0.555313007 _24_ AGT  --- 40 ack 40 [0 0 0 0] ------- [24:0 0:0 32 0] [15 0] 0 0
r 0.555313007 _24_ RTR  --- 40 ack 40 [0 0 0 0] ------- [24:0 0:0 32 0] [15 0] 0 0
s 0.555313007 _24_ RTR  --- 40 ack 40 [0 0 0 0] ------- [24:0 0:0 30 4] [15 0] 0 0
r 0.557319046 _4_ RTR  --- 40 ack 40 [13a 4 18 800] ------- [24:0 0:0 30 4] [15 0] 1 0
f 0.557319046 _4_ RTR  --- 40 ack 40 [13a 4 18 800] ------- [24:0 0:0 29 0] [15 0] 1 0
r 0.571236173 _4_ RTR  --- 30 tcp 1540 [13a 4 0 800] ------- [0:0 24:0 30 4] [19 0] 1 0
f 0.571236173 _4_ RTR  --- 30 tcp 1540 [13a 4 0 800] ------- [0:0 24:0 29 24] [19 0] 1 0
r 0.585262212 _24_ AGT  --- 24 tcp 1540 [13a 18 4 800] ------- [0:0 24:0 29 24] [16 0] 2 0
s 0.585262212 _24_ AGT  --- 41 ack 40 [0 0 0 0] ------- [24:0 0:0 32 0] [16 0] 0 0
r 0.585262212 _24_ RTR  --- 41 ack 40 [0 0 0 0] ------- [24:0 0:0 32 0] [16 0] 0 0
s 0.585262212 _24_ RTR  --- 41 ack 40 [0 0 0 0] ------- [24:0 0:0 30 4] [16 0] 0 0
r 0.587248251 _4_ RTR  --- 41 ack 40 [13a 4 18 800] ------- [24:0 0:0 30 4] [16 0] 1 0
f 0.587248251 _4_ RTR  --- 41 ack 40 [13a 4 18 800] ------- [24:0 0:0 29 0] [16 0] 1 0
r 0.601234289 _24_ AGT  --- 27 tcp 1540 [13a 18 4 800] ------- [0:0 24:0 29 24] [17 0] 2 0
s 0.601234289 _24_ AGT  --- 42 ack 40 [0 0 0 0] ------- [24:0 0:0 32 0] [17 0] 0 0
r 0.601234289 _24_ RTR  --- 42 ack 40 [0 0 0 0] ------- [24:0 0:0 32 0] [17 0] 0 0
s 0.601234289 _24_ RTR  --- 42 ack 40 [0 0 0 0] ------- [24:0 0:0 30 4] [17 0] 0 0
r 0.603080328 _4_ RTR  --- 42 ack 40 [13a 4 18 800] ------- [24:0 0:0 30 4] [17 0] 1 0
f 0.603080328 _4_ RTR  --- 42 ack 40 [13a 4 18 800] ------- [24:0 0:0 29 0] [17 0] 1 0
r 0.617157455 _4_ RTR  --- 31 tcp 1540 [13a 4 0 800] ------- [0:0 24:0 30 4] [20 0] 1 0
f 0.617157455 _4_ RTR  --- 31 tcp 1540 [13a 4 0 800] ------- [0:0 24:0 29 24] [20 0] 1 0
r 0.631124622 _4_ RTR  --- 33 tcp 1540 [13a 4 0 800] ------- [0:0 24:0 30 4] [21 0] 1 0
f 0.631124622 _4_ RTR  --- 33 tcp 1540 [13a 4 0 800] ------- [0:0 24:0 29 24] [21 0] 1 0
r 0.645090661 _24_ AGT  --- 28 tcp 1540 [13a 18 4 800] ------- [0:0 24:0 29 24] [18 0] 2 0
s 0.645090661 _24_ AGT  --- 43 ack 40 [0 0 0 0] ------- [24:0 0:0 32 0] [18 0] 0 0
r 0.645090661 _24_ RTR  --- 43 ack 40 [0 0 0 0] ------- [24:0 0:0 32 0] [18 0] 0 0
s 0.645090661 _24_ RTR  --- 43 ack 40 [0 0 0 0] ------- [24:0 0:0 30 4] [18 0] 0 0
r 0.646916700 _4_ RTR  --- 43 ack 40 [13a 4 18 800] ------- [24:0 0:0 30 4] [18 0] 1 0
f 0.646916700 _4_ RTR  --- 43 ack 40 [13a 4 18 800] ------- [24:0 0:0 29 0] [18 0] 1 0
r 0.648843075 _0_ AGT  --- 35 ack 40 [13a 0 4 800] ------- [24:0 0:0 29 0] [12 0] 2 0
s 0.648843075 _0_ AGT  --- 44 tcp 1540 [0 0 0 0] ------- [0:0 24:0 32 0] [25 0] 0 0
r 0.648843075 _0_ RTR  --- 44 tcp 1540 [0 0 0 0] ------- [0:0 24:0 32 0] [25 0] 0 0
s 0.648843075 _0_ AGT  --- 45 tcp 1540 [0 0 0 0] ------- [0:0 24:0 32 0] [26 0] 0 0
r 0.648843075 _0_ RTR  --- 45 tcp 1540 [0 0 0 0] ------- [0:0 24:0 32 0] [26 0] 0 0
s 0.648843075 _0_ RTR  --- 44 tcp 1540 [0 0 0 0] ------- [0:0 24:0 30 4] [25 0] 0 0
s 0.648843075 _0_ RTR  --- 45 tcp 1540 [0 0 0 0] ------- [0:0 24:0 30 4] [26 0] 0 0
r 0.662729450 _4_ RTR  --- 34 tcp 1540 [13a 4 0 800] ------- [0:0 24:0 30 4] [22 0] 1 0
f 0.662729450 _4_ RTR  --- 34 tcp 1540 [13a 4 0 800] ------- [0:0 24:0 29 24] [22 0] 1 0
r 0.665035825 _0_ AGT  --- 36 ack 40 [13a 0 4 800] ------- [24:0 0:0 29 0] [13 0] 2 0
s 0.665035825 _0_ AGT  --- 46 tcp 1540 [0 0 0 0] ------- [0:0 24:0 32 0] [27 0] 0 0
r 0.665035825 _0_ RTR  --- 46 tcp 1540 [0 0 0 0] ------- [0:0 24:0 32 0] [27 0] 0 0
s 0.665035825 _0_ AGT  --- 47 tcp 1540 [0 0 0 0] ------- [0:0 24:0 32 0] [28 0] 0 0
r 0.665035825 _0_ RTR  --- 47 tcp 1540 [0 0 0 0] ------- [0:0 24:0 32 0] [28 0] 0 0
s 0.665035825 _0_ RTR  --- 46 tcp 1540 [0 0 0 0] ------- [0:0 24:0 30 4] [27 0] 0 0
s 0.665035825 _0_ RTR  --- 47 tcp 1540 [0 0 0 0] ------- [0:0 24:0 30 4] [28 0] 0 0
r 0.678942200 _4_ RTR  --- 37 tcp 1540 [13a 4 0 800] ------- [0:0 24:0 30 4] [23 0] 1 0
f 0.678942200 _4_ RTR  --- 37 tcp 1540 [13a 4 0 800] ------- [0:0 24:0 29 24] [23 0] 1 0
r 0.681288575 _0_ AGT  --- 39 ack 40 [13a 0 4 800] ------- [24:0 0:0 29 0] [14 0] 2 0
s 0.681288575 _0_ AGT  --- 48 tcp 1540 [0 0 0 0] ------- [0:0 24:0 32 0] [29 0] 0 0
r 0.681288575 _0_ RTR  --- 48 tcp 1540 [0 0 0 0] ------- [0:0 24:0 32 0] [29 0] 0 0
s 0.681288575 _0_ AGT  --- 49 tcp 1540 [0 0 0 0] ------- [0:0 24:0 32 0] [30 0] 0 0
r 0.681288575 _0_ RTR  --- 49 tcp 1540 [0 0 0 0] ------- [0:0 24:0 32 0] [30 0] 0 0
s 0.681288575 _0_ RTR  --- 48 tcp 1540 [0 0 0 0] ------- [0:0 24:0 30 4] [29 0] 0 0
s 0.681288575 _0_ RTR  --- 49 tcp 1540 [0 0 0 0] ------- [0:0 24:0 30 4] [30 0] 0 0
r 0.695194950 _4_ RTR  --- 38 tcp 1540 [13a 4 0 800] ------- [0:0 24:0 30 4] [24 0] 1 0
f 0.695194950 _4_ RTR  --- 38 tcp 1540 [13a 4 0 800] ------- [0:0 24:0 29 24] [24 0] 1 0
r 0.697181325 _0_ AGT  --- 40 ack 40 [13a 0 4 800] ------- [24:0 0:0 29 0] [15 0] 2 0
s 0.697181325 _0_ AGT  --- 50 tcp 1540 [0 0 0 0] ------- [0:0 24:0 32 0] [31 0] 0 0
r 0.697181325 _0_ RTR  --- 50 tcp 1540 [0 0 0 0] ------- [0:0 24:0 32 0] [31 0] 0 0
s 0.697181325 _0_ AGT  --- 51 tcp 1540 [0 0 0 0] ------- [0:0 24:0 32 0] [32 0] 0 0
r 0.697181325 _0_ RTR  --- 51 tcp 1540 [0 0 0 0] ------- [0:0 24:0 32 0] [32 0] 0 0
s 0.697181325 _0_ RTR  --- 50 tcp 1540 [0 0 0 0] ------- [0:0 24:0 30 4] [31 0] 0 0
s 0.697181325 _0_ RTR  --- 51 tcp 1540 [0 0 0 0] ------- [0:0 24:0 30 4] [32 0] 0 0
r 0.711148156 _24_ AGT  --- 30 tcp 1540 [13a 18 4 800] ------- [0:0 24:0 29 24] [19 0] 2 0
s 0.711148156 _24_ AGT  --- 52 ack 40 [0 0 0 0] ------- [24:0 0:0 32 0] [19 0] 0 0
r 0.711148156 _24_ RTR  --- 52 ack 40 [0 0 0 0] ------- [24:0 0:0 32 0] [19 0] 0 0
s 0.711148156 _24_ RTR  --- 52 ack 40 [0 0 0 0] ------- [24:0 0:0 30 4] [19 0] 0 0
r 0.713214195 _4_ RTR  --- 52 ack 40 [13a 4 18 800] ------- [24:0 0:0 30 4] [19 0] 1 0
f 0.713214195 _4_ RTR  --- 52 ack 40 [13a 4 18 800] ------- [24:0 0:0 29 0] [19 0] 1 0
r 0.727311322 _4_ RTR  --- 44 tcp 1540 [13a 4 0 800] ------- [0:0 24:0 30 4] [25 0] 1 0
f 0.727311322 _4_ RTR  --- 44 tcp 1540 [13a 4 0 800] ------- [0:0 24:0 29 24] [25 0] 1 0
r 0.729157697 _0_ AGT  --- 41 ack 40 [13a 0 4 800] ------- [24:0 0:0 29 0] [16 0] 2 0
s 0.729157697 _0_ AGT  --- 53 tcp 1540 [0 0 0 0] ------- [0:0 24:0 32 0] [33 0] 0 0
r 0.729157697 _0_ RTR  --- 53 tcp 1540 [0 0 0 0] ------- [0:0 24:0 32 0] [33 0] 0 0
s 0.729157697 _0_ AGT  --- 54 tcp 1540 [0 0 0 0] ------- [0:0 24:0 32 0] [34 0] 0 0
r 0.729157697 _0_ RTR  --- 54 tcp 1540 [0 0 0 0] ------- [0:0 24:0 32 0] [34 0] 0 0
s 0.729157697 _0_ RTR  --- 53 tcp 1540 [0 0 0 0] ------- [0:0 24:0 30 4] [33 0] 0 0
s 0.729157697 _0_ RTR  --- 54 tcp 1540 [0 0 0 0] ------- [0:0 24:0 30 4] [34 0] 0 0
r 0.730984863 _0_ AGT  --- 42 ack 40 [13a 0 4 800] ------- [24:0 0:0 29 0] [17 0] 2 0
s 0.730984863 _0_ AGT  --- 55 tcp 1540 [0 0 0 0] ------- [0:0 24:0 32 0] [35 0] 0 0
r 0.730984863 _0_ RTR  --- 55 tcp 1540 [0 0 0 0] ------- [0:0 24:0 32 0] [35 0] 0 0
s 0.730984863 _0_ AGT  --- 56 tcp 1540 [0 0 0 0] ------- [0:0 24:0 32 0] [36 0] 0 0
r 0.730984863 _0_ RTR  --- 56 tcp 1540 [0 0 0 0] ------- [0:0 24:0 32 0] [36 0] 0 0