n -t * -s 0  -x 523 -y 467 -Z 0 -z 25  -v circle -c black
n -t * -s 1  -x 173 -y 503 -Z 0 -z 25  -v circle -c black
n -t * -s 2  -x 924 -y 148 -Z 0 -z 25  -v circle -c black
n -t * -s 3  -x 713 -y 694 -Z 0 -z 25  -v circle -c black
n -t * -s 4  -x 659 -y 214 -Z 0 -z 25  -v circle -c black
n -t * -s 5  -x 594 -y 440 -Z 0 -z 25  -v circle -c black
n -t * -s 6  -x 125 -y 129 -Z 0 -z 25  -v circle -c black
n -t * -s 7  -x 992 -y 279 -Z 0 -z 25  -v circle -c black
n -t * -s 8  -x 226 -y 993 -Z 0 -z 25  -v circle -c black
n -t * -s 9  -x 16 -y 284 -Z 0 -z 25  -v circle -c black
n -t * -s 10  -x 249 -y 816 -Z 0 -z 25  -v circle -c black
n -t * -s 11  -x 492 -y 618 -Z 0 -z 25  -v circle -c black
n -t * -s 12  -x 960 -y 13 -Z 0 -z 25  -v circle -c black
n -t * -s 13  -x 398 -y 487 -Z 0 -z 25  -v circle -c black
n -t * -s 14  -x 990 -y 806 -Z 0 -z 25  -v circle -c black
V -t * -v 1.0a5 -a 0
W -t * -x 1000 -y 1000
A -t * -n 1 -p 0 -o 0x7fffffff -c 30 -a 1
A -t * -h 1 -m 1073741823 -s 0
+ -t 0.010000000 -s 0 -d -1 -p tcp -e 40 -c 2 -a 0 -i 0 -k AGT 
- -t 0.010000000 -s 0 -d -1 -p tcp -e 40 -c 2 -a 0 -i 0 -k AGT
h -t 0.010000000 -s 0 -d -1 -p tcp -e 40 -c 2 -a 0 -i 0 -k AGT
+ -t 0.010000000 -s 0 -d -1 -p AODV -e 48 -c 2 -a 0 -i 0 -k RTR 
- -t 0.010000000 -s 0 -d -1 -p AODV -e 48 -c 2 -a 0 -i 0 -k RTR
h -t 0.010000000 -s 0 -d -1 -p AODV -e 48 -c 2 -a 0 -i 0 -k RTR
r -t 0.010988253 -s 5 -d -1 -p AODV -e 48 -c 2 -a 0 -i 0 -k RTR
r -t 0.010988422 -s 13 -d -1 -p AODV -e 48 -c 2 -a 0 -i 0 -k RTR
r -t 0.010988514 -s 11 -d -1 -p AODV -e 48 -c 2 -a 0 -i 0 -k RTR
+ -t 0.011869480 -s 5 -d -1 -p AODV -e 48 -c 2 -a 0 -i 0 -k RTR 
- -t 0.011869480 -s 5 -d -1 -p AODV -e 48 -c 2 -a 0 -i 0 -k RTR
h -t 0.011869480 -s 5 -d -1 -p AODV -e 48 -c 2 -a 0 -i 0 -k RTR
r -t 0.012977733 -s 0 -d -1 -p AODV -e 48 -c 2 -a 0 -i 0 -k RTR
r -t 0.012978152 -s 13 -d -1 -p AODV -e 48 -c 2 -a 0 -i 0 -k RTR
r -t 0.012978164 -s 11 -d -1 -p AODV -e 48 -c 2 -a 0 -i 0 -k RTR
r -t 0.012978264 -s 4 -d -1 -p AODV -e 48 -c 2 -a 0 -i 0 -k RTR
+ -t 0.012978264 -s 4 -d 5 -p AODV -e 44 -c 2 -a 0 -i 0 -k RTR 
- -t 0.012978264 -s 4 -d 5 -p AODV -e 44 -c 2 -a 0 -i 0 -k RTR
h -t 0.012978264 -s 4 -d 5 -p AODV -e 44 -c 2 -a 0 -i 0 -k RTR
+ -t 0.015400156 -s 13 -d -1 -p AODV -e 48 -c 2 -a 0 -i 0 -k RTR 
- -t 0.015400156 -s 13 -d -1 -p AODV -e 48 -c 2 -a 0 -i 0 -k RTR
h -t 0.015400156 -s 13 -d -1 -p AODV -e 48 -c 2 -a 0 -i 0 -k RTR
+ -t 0.017626751 -s 5 -d 0 -p AODV -e 44 -c 2 -a 0 -i 0 -k RTR 
- -t 0.017626751 -s 5 -d 0 -p AODV -e 44 -c 2 -a 0 -i 0 -k RTR
h -t 0.017626751 -s 5 -d 0 -p AODV -e 44 -c 2 -a 0 -i 0 -k RTR
+ -t 0.018980068 -s 11 -d -1 -p AODV -e 48 -c 2 -a 0 -i 0 -k RTR 
- -t 0.018980068 -s 11 -d -1 -p AODV -e 48 -c 2 -a 0 -i 0 -k RTR
h -t 0.018980068 -s 11 -d -1 -p AODV -e 48 -c 2 -a 0 -i 0 -k RTR
r -t 0.019129648 -s 0 -d -1 -p AODV -e 48 -c 2 -a 0 -i 0 -k RTR
r -t 0.019129763 -s 11 -d -1 -p AODV -e 48 -c 2 -a 0 -i 0 -k RTR
r -t 0.019129898 -s 5 -d -1 -p AODV -e 48 -c 2 -a 0 -i 0 -k RTR
r -t 0.019129978 -s 1 -d -1 -p AODV -e 48 -c 2 -a 0 -i 0 -k RTR
r -t 0.021127096 -s 0 -d -1 -p AODV -e 48 -c 2 -a 0 -i 0 -k RTR
r -t 0.021127119 -s 13 -d -1 -p AODV -e 48 -c 2 -a 0 -i 0 -k RTR
r -t 0.021127266 -s 5 -d -1 -p AODV -e 48 -c 2 -a 0 -i 0 -k RTR
r -t 0.021127361 -s 3 -d -1 -p AODV -e 48 -c 2 -a 0 -i 0 -k RTR
+ -t 0.023366545 -s 1 -d -1 -p AODV -e 48 -c 2 -a 0 -i 0 -k RTR 
- -t 0.023366545 -s 1 -d -1 -p AODV -e 48 -c 2 -a 0 -i 0 -k RTR
h -t 0.023366545 -s 1 -d -1 -p AODV -e 48 -c 2 -a 0 -i 0 -k RTR
+ -t 0.024614771 -s 3 -d -1 -p AODV -e 48 -c 2 -a 0 -i 0 -k RTR 
- -t 0.024614771 -s 3 -d -1 -p AODV -e 48 -c 2 -a 0 -i 0 -k RTR
h -t 0.024614771 -s 3 -d -1 -p AODV -e 48 -c 2 -a 0 -i 0 -k RTR
+ -t 0.024778615 -s 0 -d 5 -p tcp -e 40 -c 2 -a 0 -i 0 -k RTR 
- -t 0.024778615 -s 0 -d 5 -p tcp -e 40 -c 2 -a 0 -i 0 -k RTR
h -t 0.024778615 -s 0 -d 5 -p tcp -e 40 -c 2 -a 0 -i 0 -k RTR
+ -t 0.026723374 -s 5 -d 4 -p tcp -e 40 -c 2 -a 0 -i 0 -k RTR 
- -t 0.026723374 -s 5 -d 4 -p tcp -e 40 -c 2 -a 0 -i 0 -k RTR
h -t 0.026723374 -s 5 -d 4 -p tcp -e 40 -c 2 -a 0 -i 0 -k RTR
r -t 0.028889726 -s 4 -d 4 -p tcp -e 40 -c 2 -a 0 -i 0 -k AGT
+ -t 0.028889726 -s 4 -d -1 -p ack -e 40 -c 2 -a 0 -i 1 -k AGT 
- -t 0.028889726 -s 4 -d -1 -p ack -e 40 -c 2 -a 0 -i 1 -k AGT
h -t 0.028889726 -s 4 -d -1 -p ack -e 40 -c 2 -a 0 -i 1 -k AGT
+ -t 0.028889726 -s 4 -d 5 -p ack -e 40 -c 2 -a 0 -i 1 -k RTR 
- -t 0.028889726 -s 4 -d 5 -p ack -e 40 -c 2 -a 0 -i 1 -k RTR
h -t 0.028889726 -s 4 -d 5 -p ack -e 40 -c 2 -a 0 -i 1 -k RTR
r -t 0.031490115 -s 11 -d -1 -p AODV -e 48 -c 2 -a 0 -i 0 -k RTR
+ -t 0.033427298 -s 5 -d 0 -p ack -e 40 -c 2 -a 0 -i 1 -k RTR 
- -t 0.033427298 -s 5 -d 0 -p ack -e 40 -c 2 -a 0 -i 1 -k RTR
h -t 0.033427298 -s 5 -d 0 -p ack -e 40 -c 2 -a 0 -i 1 -k RTR
r -t 0.035492057 -s 0 -d 0 -p ack -e 40 -c 2 -a 0 -i 1 -k AGT
+ -t 0.035492057 -s 0 -d -1 -p tcp -e 1540 -c 2 -a 0 -i 2 -k AGT 
- -t 0.035492057 -s 0 -d -1 -p tcp -e 1540 -c 2 -a 0 -i 2 -k AGT
h -t 0.035492057 -s 0 -d -1 -p tcp -e 1540 -c 2 -a 0 -i 2 -k AGT
+ -t 0.035492057 -s 0 -d -1 -p tcp -e 1540 -c 2 -a 0 -i 3 -k AGT 
- -t 0.035492057 -s 0 -d -1 -p tcp -e 1540 -c 2 -a 0 -i 3 -k AGT
h -t 0.035492057 -s 0 -d -1 -p tcp -e 1540 -c 2 -a 0 -i 3 -k AGT
+ -t 0.035492057 -s 0 -d 5 -p tcp -e 1540 -c 2 -a 0 -i 2 -k RTR 
- -t 0.035492057 -s 0 -d 5 -p tcp -e 1540 -c 2 -a 0 -i 2 -k RTR
h -t 0.035492057 -s 0 -d 5 -p tcp -e 1540 -c 2 -a 0 -i 2 -k RTR
+ -t 0.035492057 -s 0 -d 5 -p tcp -e 1540 -c 2 -a 0 -i 3 -k RTR 
- -t 0.035492057 -s 0 -d 5 -p tcp -e 1540 -c 2 -a 0 -i 3 -k RTR
h -t 0.035492057 -s 0 -d 5 -p tcp -e 1540 -c 2 -a 0 -i 3 -k RTR
+ -t 0.049676817 -s 5 -d 4 -p tcp -e 1540 -c 2 -a 0 -i 2 -k RTR 
- -t 0.049676817 -s 5 -d 4 -p tcp -e 1540 -c 2 -a 0 -i 2 -k RTR
h -t 0.049676817 -s 5 -d 4 -p tcp -e 1540 -c 2 -a 0 -i 2 -k RTR
r -t 0.063583169 -s 4 -d 4 -p tcp -e 1540 -c 2 -a 0 -i 2 -k AGT
+ -t 0.063583169 -s 4 -d -1 -p ack -e 40 -c 2 -a 0 -i 4 -k AGT 
- -t 0.063583169 -s 4 -d -1 -p ack -e 40 -c 2 -a 0 -i 4 -k AGT
h -t 0.063583169 -s 4 -d -1 -p ack -e 40 -c 2 -a 0 -i 4 -k AGT
+ -t 0.063583169 -s 4 -d 5 -p ack -e 40 -c 2 -a 0 -i 4 -k RTR 
- -t 0.063583169 -s 4 -d 5 -p ack -e 40 -c 2 -a 0 -i 4 -k RTR
h -t 0.063583169 -s 4 -d 5 -p ack -e 40 -c 2 -a 0 -i 4 -k RTR
+ -t 0.065469520 -s 5 -d 0 -p ack -e 40 -c 2 -a 0 -i 4 -k RTR 
- -t 0.065469520 -s 5 -d 0 -p ack -e 40 -c 2 -a 0 -i 4 -k RTR
h -t 0.065469520 -s 5 -d 0 -p ack -e 40 -c 2 -a 0 -i 4 -k RTR
r -t 0.067434280 -s 0 -d 0 -p ack -e 40 -c 2 -a 0 -i 4 -k AGT
+ -t 0.067434280 -s 0 -d -1 -p tcp -e 1540 -c 2 -a 0 -i 5 -k AGT 
- -t 0.067434280 -s 0 -d -1 -p tcp -e 1540 -c 2 -a 0 -i 5 -k AGT
h -t 0.067434280 -s 0 -d -1 -p tcp -e 1540 -c 2 -a 0 -i 5 -k AGT
+ -t 0.067434280 -s 0 -d -1 -p tcp -e 1540 -c 2 -a 0 -i 6 -k AGT 
- -t 0.067434280 -s 0 -d -1 -p tcp -e 1540 -c 2 -a 0 -i 6 -k AGT
h -t 0.067434280 -s 0 -d -1 -p tcp -e 1540 -c 2 -a 0 -i 6 -k AGT
+ -t 0.067434280 -s 0 -d 5 -p tcp -e 1540 -c 2 -a 0 -i 5 -k RTR 
- -t 0.067434280 -s 0 -d 5 -p tcp -e 1540 -c 2 -a 0 -i 5 -k RTR
h -t 0.067434280 -s 0 -d 5 -p tcp -e 1540 -c 2 -a 0 -i 5 -k RTR
+ -t 0.067434280 -s 0 -d 5 -p tcp -e 1540 -c 2 -a 0 -i 6 -k RTR 
- -t 0.067434280 -s 0 -d 5 -p tcp -e 1540 -c 2 -a 0 -i 6 -k RTR
h -t 0.067434280 -s 0 -d 5 -p tcp -e 1540 -c 2 -a 0 -i 6 -k RTR
+ -t 0.081399039 -s 5 -d 4 -p tcp -e 1540 -c 2 -a 0 -i 3 -k RTR 
- -t 0.081399039 -s 5 -d 4 -p tcp -e 1540 -c 2 -a 0 -i 3 -k RTR
h -t 0.081399039 -s 5 -d 4 -p tcp -e 1540 -c 2 -a 0 -i 3 -k RTR
+ -t 0.095444052 -s 5 -d 4 -p tcp -e 1540 -c 2 -a 0 -i 5 -k RTR 
- -t 0.095444052 -s 5 -d 4 -p tcp -e 1540 -c 2 -a 0 -i 5 -k RTR
h -t 0.095444052 -s 5 -d 4 -p tcp -e 1540 -c 2 -a 0 -i 5 -k RTR
r -t 0.109430404 -s 4 -d 4 -p tcp -e 1540 -c 2 -a 0 -i 3 -k AGT
+ -t 0.109430404 -s 4 -d -1 -p ack -e 40 -c 2 -a 0 -i 7 -k AGT 
- -t 0.109430404 -s 4 -d -1 -p ack -e 40 -c 2 -a 0 -i 7 -k AGT
h -t 0.109430404 -s 4 -d -1 -p ack -e 40 -c 2 -a 0 -i 7 -k AGT
+ -t 0.109430404 -s 4 -d 5 -p ack -e 40 -c 2 -a 0 -i 7 -k RTR 
- -t 0.109430404 -s 4 -d 5 -p ack -e 40 -c 2 -a 0 -i 7 -k RTR
h -t 0.109430404 -s 4 -d 5 -p ack -e 40 -c 2 -a 0 -i 7 -k RTR
r -t 0.123317539 -s 4 -d 4 -p tcp -e 1540 -c 2 -a 0 -i 5 -k AGT
+ -t 0.123317539 -s 4 -d -1 -p ack -e 40 -c 2 -a 0 -i 8 -k AGT 
- -t 0.123317539 -s 4 -d -1 -p ack -e 40 -c 2 -a 0 -i 8 -k AGT
h -t 0.123317539 -s 4 -d -1 -p ack -e 40 -c 2 -a 0 -i 8 -k AGT
+ -t 0.123317539 -s 4 -d 5 -p ack -e 40 -c 2 -a 0 -i 8 -k RTR 
- -t 0.123317539 -s 4 -d 5 -p ack -e 40 -c 2 -a 0 -i 8 -k RTR
h -t 0.123317539 -s 4 -d 5 -p ack -e 40 -c 2 -a 0 -i 8 -k RTR
+ -t 0.137547256 -s 5 -d 4 -p tcp -e 1540 -c 2 -a 0 -i 6 -k RTR 
- -t 0.137547256 -s 5 -d 4 -p tcp -e 1540 -c 2 -a 0 -i 6 -k RTR
h -t 0.137547256 -s 5 -d 4 -p tcp -e 1540 -c 2 -a 0 -i 6 -k RTR
+ -t 0.139544312 -s 5 -d 0 -p ack -e 40 -c 2 -a 0 -i 7 -k RTR 
- -t 0.139544312 -s 5 -d 0 -p ack -e 40 -c 2 -a 0 -i 7 -k RTR
h -t 0.139544312 -s 5 -d 0 -p ack -e 40 -c 2 -a 0 -i 7 -k RTR
r -t 0.153550664 -s 4 -d 4 -p tcp -e 1540 -c 2 -a 0 -i 6 -k AGT
+ -t 0.153550664 -s 4 -d -1 -p ack -e 40 -c 2 -a 0 -i 9 -k AGT 
- -t 0.153550664 -s 4 -d -1 -p ack -e 40 -c 2 -a 0 -i 9 -k AGT
h -t 0.153550664 -s 4 -d -1 -p ack -e 40 -c 2 -a 0 -i 9 -k AGT
+ -t 0.153550664 -s 4 -d 5 -p ack -e 40 -c 2 -a 0 -i 9 -k RTR 
- -t 0.153550664 -s 4 -d 5 -p ack -e 40 -c 2 -a 0 -i 9 -k RTR
h -t 0.153550664 -s 4 -d 5 -p ack -e 40 -c 2 -a 0 -i 9 -k RTR
+ -t 0.155477015 -s 5 -d 0 -p ack -e 40 -c 2 -a 0 -i 8 -k RTR 
- -t 0.155477015 -s 5 -d 0 -p ack -e 40 -c 2 -a 0 -i 8 -k RTR
h -t 0.155477015 -s 5 -d 0 -p ack -e 40 -c 2 -a 0 -i 8 -k RTR
r -t 0.157381775 -s 0 -d 0 -p ack -e 40 -c 2 -a 0 -i 7 -k AGT
+ -t 0.157381775 -s 0 -d -1 -p tcp -e 1540 -c 2 -a 0 -i 10 -k AGT 
- -t 0.157381775 -s 0 -d -1 -p tcp -e 1540 -c 2 -a 0 -i 10 -k AGT
h -t 0.157381775 -s 0 -d -1 -p tcp -e 1540 -c 2 -a 0 -i 10 -k AGT
+ -t 0.157381775 -s 0 -d -1 -p tcp -e 1540 -c 2 -a 0 -i 11 -k AGT 
- -t 0.157381775 -s 0 -d -1 -p tcp -e 1540 -c 2 -a 0 -i 11 -k AGT
h -t 0.157381775 -s 0 -d -1 -p tcp -e 1540 -c 2 -a 0 -i 11 -k AGT
+ -t 0.157381775 -s 0 -d 5 -p tcp -e 1540 -c 2 -a 0 -i 10 -k RTR 
- -t 0.157381775 -s 0 -d 5 -p tcp -e 1540 -c 2 -a 0 -i 10 -k RTR
h -t 0.157381775 -s 0 -d 5 -p tcp -e 1540 -c 2 -a 0 -i 10 -k RTR
+ -t 0.157381775 -s 0 -d 5 -p tcp -e 1540 -c 2 -a 0 -i 11 -k RTR 
- -t 0.157381775 -s 0 -d 5 -p tcp -e 1540 -c 2 -a 0 -i 11 -k RTR
h -t 0.157381775 -s 0 -d 5 -p tcp -e 1540 -c 2 -a 0 -i 11 -k RTR
+ -t 0.171406535 -s 5 -d 4 -p tcp -e 1540 -c 2 -a 0 -i 10 -k RTR 
- -t 0.171406535 -s 5 -d 4 -p tcp -e 1540 -c 2 -a 0 -i 10 -k RTR
h -t 0.171406535 -s 5 -d 4 -p tcp -e 1540 -c 2 -a 0 -i 10 -k RTR
+ -t 0.185231548 -s 5 -d 4 -p tcp -e 1540 -c 2 -a 0 -i 11 -k RTR 
- -t 0.185231548 -s 5 -d 4 -p tcp -e 1540 -c 2 -a 0 -i 11 -k RTR
h -t 0.185231548 -s 5 -d 4 -p tcp -e 1540 -c 2 -a 0 -i 11 -k RTR
+ -t 0.187328603 -s 5 -d 0 -p ack -e 40 -c 2 -a 0 -i 9 -k RTR 
- -t 0.187328603 -s 5 -d 0 -p ack -e 40 -c 2 -a 0 -i 9 -k RTR
h -t 0.187328603 -s 5 -d 0 -p ack -e 40 -c 2 -a 0 -i 9 -k RTR
r -t 0.189173363 -s 0 -d 0 -p ack -e 40 -c 2 -a 0 -i 8 -k AGT
+ -t 0.189173363 -s 0 -d -1 -p tcp -e 1540 -c 2 -a 0 -i 12 -k AGT 
- -t 0.189173363 -s 0 -d -1 -p tcp -e 1540 -c 2 -a 0 -i 12 -k AGT
h -t 0.189173363 -s 0 -d -1 -p tcp -e 1540 -c 2 -a 0 -i 12 -k AGT
+ -t 0.189173363 -s 0 -d -1 -p tcp -e 1540 -c 2 -a 0 -i 13 -k AGT 
- -t 0.189173363 -s 0 -d -1 -p tcp -e 1540 -c 2 -a 0 -i 13 -k AGT
h -t 0.189173363 -s 0 -d -1 -p tcp -e 1540 -c 2 -a 0 -i 13 -k AGT
+ -t 0.189173363 -s 0 -d 5 -p tcp -e 1540 -c 2 -a 0 -i 12 -k RTR 
- -t 0.189173363 -s 0 -d 5 -p tcp -e 1540 -c 2 -a 0 -i 12 -k RTR
h -t 0.189173363 -s 0 -d 5 -p tcp -e 1540 -c 2 -a 0 -i 12 -k RTR
+ -t 0.189173363 -s 0 -d 5 -p tcp -e 1540 -c 2 -a 0 -i 13 -k RTR 
- -t 0.189173363 -s 0 -d 5 -p tcp -e 1540 -c 2 -a 0 -i 13 -k RTR
h -t 0.189173363 -s 0 -d 5 -p tcp -e 1540 -c 2 -a 0 -i 13 -k RTR
+ -t 0.203158123 -s 5 -d 4 -p tcp -e 1540 -c 2 -a 0 -i 12 -k RTR 
- -t 0.203158123 -s 5 -d 4 -p tcp -e 1540 -c 2 -a 0 -i 12 -k RTR
h -t 0.203158123 -s 5 -d 4 -p tcp -e 1540 -c 2 -a 0 -i 12 -k RTR
+ -t 0.217929135 -s 5 -d 4 -p tcp -e 1540 -c 2 -a 0 -i 13 -k RTR 
- -t 0.217929135 -s 5 -d 4 -p tcp -e 1540 -c 2 -a 0 -i 13 -k RTR
h -t 0.217929135 -s 5 -d 4 -p tcp -e 1540 -c 2 -a 0 -i 13 -k RTR
r -t 0.232035487 -s 4 -d 4 -p tcp -e 1540 -c 2 -a 0 -i 10 -k AGT
+ -t 0.232035487 -s 4 -d -1 -p ack -e 40 -c 2 -a 0 -i 14 -k AGT 
- -t 0.232035487 -s 4 -d -1 -p ack -e 40 -c 2 -a 0 -i 14 -k AGT
h -t 0.232035487 -s 4 -d -1 -p ack -e 40 -c 2 -a 0 -i 14 -k AGT
+ -t 0.232035487 -s 4 -d 5 -p ack -e 40 -c 2 -a 0 -i 14 -k RTR 
- -t 0.232035487 -s 4 -d 5 -p ack -e 40 -c 2 -a 0 -i 14 -k RTR
h -t 0.232035487 -s 4 -d 5 -p ack -e 40 -c 2 -a 0 -i 14 -k RTR
r -t 0.246142622 -s 4 -d 4 -p tcp -e 1540 -c 2 -a 0 -i 11 -k AGT
+ -t 0.246142622 -s 4 -d -1 -p ack -e 40 -c 2 -a 0 -i 15 -k AGT 
- -t 0.246142622 -s 4 -d -1 -p ack -e 40 -c 2 -a 0 -i 15 -k AGT
h -t 0.246142622 -s 4 -d -1 -p ack -e 40 -c 2 -a 0 -i 15 -k AGT
+ -t 0.246142622 -s 4 -d 5 -p ack -e 40 -c 2 -a 0 -i 15 -k RTR 
- -t 0.246142622 -s 4 -d 5 -p ack -e 40 -c 2 -a 0 -i 15 -k RTR
h -t 0.246142622 -s 4 -d 5 -p ack -e 40 -c 2 -a 0 -i 15 -k RTR
+ -t 0.249556542 -s 5 -d 0 -p ack -e 40 -c 2 -a 0 -i 14 -k RTR 
- -t 0.249556542 -s 5 -d 0 -p ack -e 40 -c 2 -a 0 -i 14 -k RTR
h -t 0.249556542 -s 5 -d 0 -p ack -e 40 -c 2 -a 0 -i 14 -k RTR
+ -t 0.252729677 -s 5 -d 0 -p ack -e 40 -c 2 -a 0 -i 15 -k RTR 
- -t 0.252729677 -s 5 -d 0 -p ack -e 40 -c 2 -a 0 -i 15 -k RTR
h -t 0.252729677 -s 5 -d 0 -p ack -e 40 -c 2 -a 0 -i 15 -k RTR
r -t 0.254934437 -s 0 -d 0 -p ack -e 40 -c 2 -a 0 -i 9 -k AGT
+ -t 0.254934437 -s 0 -d -1 -p tcp -e 1540 -c 2 -a 0 -i 16 -k AGT 
- -t 0.254934437 -s 0 -d -1 -p tcp -e 1540 -c 2 -a 0 -i 16 -k AGT
h -t 0.254934437 -s 0 -d -1 -p tcp -e 1540 -c 2 -a 0 -i 16 -k AGT
+ -t 0.254934437 -s 0 -d -1 -p tcp -e 1540 -c 2 -a 0 -i 17 -k AGT 
- -t 0.254934437 -s 0 -d -1 -p tcp -e 1540 -c 2 -a 0 -i 17 -k AGT
h -t 0.254934437 -s 0 -d -1 -p tcp -e 1540 -c 2 -a 0 -i 17 -k AGT
+ -t 0.254934437 -s 0 -d 5 -p tcp -e 1540 -c 2 -a 0 -i 16 -k RTR 
- -t 0.254934437 -s 0 -d 5 -p tcp -e 1540 -c 2 -a 0 -i 16 -k RTR
h -t 0.254934437 -s 0 -d 5 -p tcp -e 1540 -c 2 -a 0 -i 16 -k RTR
+ -t 0.254934437 -s 0 -d 5 -p tcp -e 1540 -c 2 -a 0 -i 17 -k RTR 
- -t 0.254934437 -s 0 -d 5 -p tcp -e 1540 -c 2 -a 0 -i 17 -k RTR
h -t 0.254934437 -s 0 -d 5 -p tcp -e 1540 -c 2 -a 0 -i 17 -k RTR
+ -t 0.268879197 -s 5 -d 4 -p tcp -e 1540 -c 2 -a 0 -i 16 -k RTR 
- -t 0.268879197 -s 5 -d 4 -p tcp -e 1540 -c 2 -a 0 -i 16 -k RTR
h -t 0.268879197 -s 5 -d 4 -p tcp -e 1540 -c 2 -a 0 -i 16 -k RTR
r -t 0.282785548 -s 4 -d 4 -p tcp -e 1540 -c 2 -a 0 -i 12 -k AGT
+ -t 0.282785548 -s 4 -d -1 -p ack -e 40 -c 2 -a 0 -i 18 -k AGT 
- -t 0.282785548 -s 4 -d -1 -p ack -e 40 -c 2 -a 0 -i 18 -k AGT
h -t 0.282785548 -s 4 -d -1 -p ack -e 40 -c 2 -a 0 -i 18 -k AGT
+ -t 0.282785548 -s 4 -d 5 -p ack -e 40 -c 2 -a 0 -i 18 -k RTR 
- -t 0.282785548 -s 4 -d 5 -p ack -e 40 -c 2 -a 0 -i 18 -k RTR
h -t 0.282785548 -s 4 -d 5 -p ack -e 40 -c 2 -a 0 -i 18 -k RTR
+ -t 0.297477345 -s 5 -d 4 -p tcp -e 1540 -c 2 -a 0 -i 17 -k RTR 
- -t 0.297477345 -s 5 -d 4 -p tcp -e 1540 -c 2 -a 0 -i 17 -k RTR
h -t 0.297477345 -s 5 -d 4 -p tcp -e 1540 -c 2 -a 0 -i 17 -k RTR
+ -t 0.299414401 -s 5 -d 0 -p ack -e 40 -c 2 -a 0 -i 18 -k RTR 
- -t 0.299414401 -s 5 -d 0 -p ack -e 40 -c 2 -a 0 -i 18 -k RTR
h -t 0.299414401 -s 5 -d 0 -p ack -e 40 -c 2 -a 0 -i 18 -k RTR
r -t 0.313480752 -s 4 -d 4 -p tcp -e 1540 -c 2 -a 0 -i 13 -k AGT
+ -t 0.313480752 -s 4 -d -1 -p ack -e 40 -c 2 -a 0 -i 19 -k AGT 
- -t 0.313480752 -s 4 -d -1 -p ack -e 40 -c 2 -a 0 -i 19 -k AGT
h -t 0.313480752 -s 4 -d -1 -p ack -e 40 -c 2 -a 0 -i 19 -k AGT
+ -t 0.313480752 -s 4 -d 5 -p ack -e 40 -c 2 -a 0 -i 19 -k RTR 
- -t 0.313480752 -s 4 -d 5 -p ack -e 40 -c 2 -a 0 -i 19 -k RTR
h -t 0.313480752 -s 4 -d 5 -p ack -e 40 -c 2 -a 0 -i 19 -k RTR
+ -t 0.315407104 -s 5 -d 0 -p ack -e 40 -c 2 -a 0 -i 19 -k RTR 
- -t 0.315407104 -s 5 -d 0 -p ack -e 40 -c 2 -a 0 -i 19 -k RTR
h -t 0.315407104 -s 5 -d 0 -p ack -e 40 -c 2 -a 0 -i 19 -k RTR
r -t 0.317751864 -s 0 -d 0 -p ack -e 40 -c 2 -a 0 -i 14 -k AGT
+ -t 0.317751864 -s 0 -d -1 -p tcp -e 1540 -c 2 -a 0 -i 20 -k AGT 
- -t 0.317751864 -s 0 -d -1 -p tcp -e 1540 -c 2 -a 0 -i 20 -k AGT
h -t 0.317751864 -s 0 -d -1 -p tcp -e 1540 -c 2 -a 0 -i 20 -k AGT
+ -t 0.317751864 -s 0 -d -1 -p tcp -e 1540 -c 2 -a 0 -i 21 -k AGT 
- -t 0.317751864 -s 0 -d -1 -p tcp -e 1540 -c 2 -a 0 -i 21 -k AGT
h -t 0.317751864 -s 0 -d -1 -p tcp -e 1540 -c 2 -a 0 -i 21 -k AGT
+ -t 0.317751864 -s 0 -d 5 -p tcp -e 1540 -c 2 -a 0 -i 20 -k RTR 
- -t 0.317751864 -s 0 -d 5 -p tcp -e 1540 -c 2 -a 0 -i 20 -k RTR
h -t 0.317751864 -s 0 -d 5 -p tcp -e 1540 -c 2 -a 0 -i 20 -k RTR
+ -t 0.317751864 -s 0 -d 5 -p tcp -e 1540 -c 2 -a 0 -i 21 -k RTR 
- -t 0.317751864 -s 0 -d 5 -p tcp -e 1540 -c 2 -a 0 -i 21 -k RTR
h -t 0.317751864 -s 0 -d 5 -p tcp -e 1540 -c 2 -a 0 -i 21 -k RTR
+ -t 0.331636623 -s 5 -d 4 -p tcp -e 1540 -c 2 -a 0 -i 20 -k RTR 
- -t 0.331636623 -s 5 -d 4 -p tcp -e 1540 -c 2 -a 0 -i 20 -k RTR
h -t 0.331636623 -s 5 -d 4 -p tcp -e 1540 -c 2 -a 0 -i 20 -k RTR
+ -t 0.345581636 -s 5 -d 4 -p tcp -e 1540 -c 2 -a 0 -i 21 -k RTR 
- -t 0.345581636 -s 5 -d 4 -p tcp -e 1540 -c 2 -a 0 -i 21 -k RTR
h -t 0.345581636 -s 5 -d 4 -p tcp -e 1540 -c 2 -a 0 -i 21 -k RTR
r -t 0.347806396 -s 0 -d 0 -p ack -e 40 -c 2 -a 0 -i 15 -k AGT
+ -t 0.347806396 -s 0 -d -1 -p tcp -e 1540 -c 2 -a 0 -i 22 -k AGT 
- -t 0.347806396 -s 0 -d -1 -p tcp -e 1540 -c 2 -a 0 -i 22 -k AGT
h -t 0.347806396 -s 0 -d -1 -p tcp -e 1540 -c 2 -a 0 -i 22 -k AGT
+ -t 0.347806396 -s 0 -d -1 -p tcp -e 1540 -c 2 -a 0 -i 23 -k AGT 
- -t 0.347806396 -s 0 -d -1 -p tcp -e 1540 -c 2 -a 0 -i 23 -k AGT
h -t 0.347806396 -s 0 -d -1 -p tcp -e 1540 -c 2 -a 0 -i 23 -k AGT
+ -t 0.347806396 -s 0 -d 5 -p tcp -e 1540 -c 2 -a 0 -i 22 -k RTR 
- -t 0.347806396 -s 0 -d 5 -p tcp -e 1540 -c 2 -a 0 -i 22 -k RTR
h -t 0.347806396 -s 0 -d 5 -p tcp -e 1540 -c 2 -a 0 -i 22 -k RTR
+ -t 0.347806396 -s 0 -d 5 -p tcp -e 1540 -c 2 -a 0 -i 23 -k RTR 
- -t 0.347806396 -s 0 -d 5 -p tcp -e 1540 -c 2 -a 0 -i 23 -k RTR
h -t 0.347806396 -s 0 -d 5 -p tcp -e 1540 -c 2 -a 0 -i 23 -k RTR
+ -t 0.361831155 -s 5 -d 4 -p tcp -e 1540 -c 2 -a 0 -i 22 -k RTR 
- -t 0.361831155 -s 5 -d 4 -p tcp -e 1540 -c 2 -a 0 -i 22 -k RTR
h -t 0.361831155 -s 5 -d 4 -p tcp -e 1540 -c 2 -a 0 -i 22 -k RTR
r -t 0.375917507 -s 4 -d 4 -p tcp -e 1540 -c 2 -a 0 -i 16 -k AGT
+ -t 0.375917507 -s 4 -d -1 -p ack -e 40 -c 2 -a 0 -i 24 -k AGT 
- -t 0.375917507 -s 4 -d -1 -p ack -e 40 -c 2 -a 0 -i 24 -k AGT
h -t 0.375917507 -s 4 -d -1 -p ack -e 40 -c 2 -a 0 -i 24 -k AGT
+ -t 0.375917507 -s 4 -d 5 -p ack -e 40 -c 2 -a 0 -i 24 -k RTR 
- -t 0.375917507 -s 4 -d 5 -p ack -e 40 -c 2 -a 0 -i 24 -k RTR
h -t 0.375917507 -s 4 -d 5 -p ack -e 40 -c 2 -a 0 -i 24 -k RTR
+ -t 0.391109303 -s 5 -d 4 -p tcp -e 1540 -c 2 -a 0 -i 23 -k RTR 
- -t 0.391109303 -s 5 -d 4 -p tcp -e 1540 -c 2 -a 0 -i 23 -k RTR
h -t 0.391109303 -s 5 -d 4 -p tcp -e 1540 -c 2 -a 0 -i 23 -k RTR
r -t 0.404955655 -s 4 -d 4 -p tcp -e 1540 -c 2 -a 0 -i 17 -k AGT
+ -t 0.404955655 -s 4 -d -1 -p ack -e 40 -c 2 -a 0 -i 25 -k AGT 
- -t 0.404955655 -s 4 -d -1 -p ack -e 40 -c 2 -a 0 -i 25 -k AGT
h -t 0.404955655 -s 4 -d -1 -p ack -e 40 -c 2 -a 0 -i 25 -k AGT
+ -t 0.404955655 -s 4 -d 5 -p ack -e 40 -c 2 -a 0 -i 25 -k RTR 
- -t 0.404955655 -s 4 -d 5 -p ack -e 40 -c 2 -a 0 -i 25 -k RTR
h -t 0.404955655 -s 4 -d 5 -p ack -e 40 -c 2 -a 0 -i 25 -k RTR
+ -t 0.407162007 -s 5 -d 0 -p ack -e 40 -c 2 -a 0 -i 24 -k RTR 
- -t 0.407162007 -s 5 -d 0 -p ack -e 40 -c 2 -a 0 -i 24 -k RTR
h -t 0.407162007 -s 5 -d 0 -p ack -e 40 -c 2 -a 0 -i 24 -k RTR
r -t 0.410154334 -s 0 -d 0 -p ack -e 40 -c 2 -a 0 -i 18 -k AGT
+ -t 0.410154334 -s 0 -d -1 -p tcp -e 1540 -c 2 -a 0 -i 26 -k AGT 
- -t 0.410154334 -s 0 -d -1 -p tcp -e 1540 -c 2 -a 0 -i 26 -k AGT
h -t 0.410154334 -s 0 -d -1 -p tcp -e 1540 -c 2 -a 0 -i 26 -k AGT
+ -t 0.410154334 -s 0 -d -1 -p tcp -e 1540 -c 2 -a 0 -i 27 -k AGT 
- -t 0.410154334 -s 0 -d -1 -p tcp -e 1540 -c 2 -a 0 -i 27 -k AGT
h -t 0.410154334 -s 0 -d -1 -p tcp -e 1540 -c 2 -a 0 -i 27 -k AGT
+ -t 0.410154334 -s 0 -d 5 -p tcp -e 1540 -c 2 -a 0 -i 26 -k RTR 
- -t 0.410154334 -s 0 -d 5 -p tcp -e 1540 -c 2 -a 0 -i 26 -k RTR
h -t 0.410154334 -s 0 -d 5 -p tcp -e 1540 -c 2 -a 0 -i 26 -k RTR
+ -t 0.410154334 -s 0 -d 5 -p tcp -e 1540 -c 2 -a 0 -i 27 -k RTR 
- -t 0.410154334 -s 0 -d 5 -p tcp -e 1540 -c 2 -a 0 -i 27 -k RTR
h -t 0.410154334 -s 0 -d 5 -p tcp -e 1540 -c 2 -a 0 -i 27 -k RTR
r -t 0.412379347 -s 0 -d 0 -p ack -e 40 -c 2 -a 0 -i 19 -k AGT
+ -t 0.412379347 -s 0 -d -1 -p tcp -e 1540 -c 2 -a 0 -i 28 -k AGT 
- -t 0.412379347 -s 0 -d -1 -p tcp -e 1540 -c 2 -a 0 -i 28 -k AGT
h -t 0.412379347 -s 0 -d -1 -p tcp -e 1540 -c 2 -a 0 -i 28 -k AGT
+ -t 0.412379347 -s 0 -d -1 -p tcp -e 1540 -c 2 -a 0 -i 29 -k AGT 
- -t 0.412379347 -s 0 -d -1 -p tcp -e 1540 -c 2 -a 0 -i 29 -k AGT
h -t 0.412379347 -s 0 -d -1 -p tcp -e 1540 -c 2 -a 0 -i 29 -k AGT
+ -t 0.412379347 -s 0 -d 5 -p tcp -e 1540 -c 2 -a 0 -i 28 -k RTR 
- -t 0.412379347 -s 0 -d 5 -p tcp -e 1540 -c 2 -a 0 -i 28 -k RTR
h -t 0.412379347 -s 0 -d 5 -p tcp -e 1540 -c 2 -a 0 -i 28 -k RTR
+ -t 0.412379347 -s 0 -d 5 -p tcp -e 1540 -c 2 -a 0 -i 29 -k RTR 
- -t 0.412379347 -s 0 -d 5 -p tcp -e 1540 -c 2 -a 0 -i 29 -k RTR
h -t 0.412379347 -s 0 -d 5 -p tcp -e 1540 -c 2 -a 0 -i 29 -k RTR
+ -t 0.426244106 -s 5 -d 4 -p tcp -e 1540 -c 2 -a 0 -i 26 -k RTR 
- -t 0.426244106 -s 5 -d 4 -p tcp -e 1540 -c 2 -a 0 -i 26 -k RTR
h -t 0.426244106 -s 5 -d 4 -p tcp -e 1540 -c 2 -a 0 -i 26 -k RTR
r -t 0.440170458 -s 4 -d 4 -p tcp -e 1540 -c 2 -a 0 -i 20 -k AGT
+ -t 0.440170458 -s 4 -d -1 -p ack -e 40 -c 2 -a 0 -i 30 -k AGT 
- -t 0.440170458 -s 4 -d -1 -p ack -e 40 -c 2 -a 0 -i 30 -k AGT
h -t 0.440170458 -s 4 -d -1 -p ack -e 40 -c 2 -a 0 -i 30 -k AGT
+ -t 0.440170458 -s 4 -d 5 -p ack -e 40 -c 2 -a 0 -i 30 -k RTR 
- -t 0.440170458 -s 4 -d 5 -p ack -e 40 -c 2 -a 0 -i 30 -k RTR
h -t 0.440170458 -s 4 -d 5 -p ack -e 40 -c 2 -a 0 -i 30 -k RTR
r -t 0.454217594 -s 4 -d 4 -p tcp -e 1540 -c 2 -a 0 -i 21 -k AGT
+ -t 0.454217594 -s 4 -d -1 -p ack -e 40 -c 2 -a 0 -i 31 -k AGT 
- -t 0.454217594 -s 4 -d -1 -p ack -e 40 -c 2 -a 0 -i 31 -k AGT
h -t 0.454217594 -s 4 -d -1 -p ack -e 40 -c 2 -a 0 -i 31 -k AGT
+ -t 0.454217594 -s 4 -d 5 -p ack -e 40 -c 2 -a 0 -i 31 -k RTR 
- -t 0.454217594 -s 4 -d 5 -p ack -e 40 -c 2 -a 0 -i 31 -k RTR
h -t 0.454217594 -s 4 -d 5 -p ack -e 40 -c 2 -a 0 -i 31 -k RTR
r -t 0.468044729 -s 4 -d 4 -p tcp -e 1540 -c 2 -a 0 -i 22 -k AGT
+ -t 0.468044729 -s 4 -d -1 -p ack -e 40 -c 2 -a 0 -i 32 -k AGT 
- -t 0.468044729 -s 4 -d -1 -p ack -e 40 -c 2 -a 0 -i 32 -k AGT
h -t 0.468044729 -s 4 -d -1 -p ack -e 40 -c 2 -a 0 -i 32 -k AGT
+ -t 0.468044729 -s 4 -d 5 -p ack -e 40 -c 2 -a 0 -i 32 -k RTR 
- -t 0.468044729 -s 4 -d 5 -p ack -e 40 -c 2 -a 0 -i 32 -k RTR
h -t 0.468044729 -s 4 -d 5 -p ack -e 40 -c 2 -a 0 -i 32 -k RTR
r -t 0.482011865 -s 4 -d 4 -p tcp -e 1540 -c 2 -a 0 -i 23 -k AGT
+ -t 0.482011865 -s 4 -d -1 -p ack -e 40 -c 2 -a 0 -i 33 -k AGT 
- -t 0.482011865 -s 4 -d -1 -p ack -e 40 -c 2 -a 0 -i 33 -k AGT
h -t 0.482011865 -s 4 -d -1 -p ack -e 40 -c 2 -a 0 -i 33 -k AGT
+ -t 0.482011865 -s 4 -d 5 -p ack -e 40 -c 2 -a 0 -i 33 -k RTR 
- -t 0.482011865 -s 4 -d 5 -p ack -e 40 -c 2 -a 0 -i 33 -k RTR
h -t 0.482011865 -s 4 -d 5 -p ack -e 40 -c 2 -a 0 -i 33 -k RTR
+ -t 0.484038216 -s 5 -d 0 -p ack -e 40 -c 2 -a 0 -i 25 -k RTR 
- -t 0.484038216 -s 5 -d 0 -p ack -e 40 -c 2 -a 0 -i 25 -k RTR
h -t 0.484038216 -s 5 -d 0 -p ack -e 40 -c 2 -a 0 -i 25 -k RTR
+ -t 0.497993149 -s 5 -d 4 -p tcp -e 1540 -c 2 -a 0 -i 27 -k RTR 
- -t 0.497993149 -s 5 -d 4 -p tcp -e 1540 -c 2 -a 0 -i 27 -k RTR
h -t 0.497993149 -s 5 -d 4 -p tcp -e 1540 -c 2 -a 0 -i 27 -k RTR
r -t 0.499877909 -s 0 -d 0 -p ack -e 40 -c 2 -a 0 -i 24 -k AGT
+ -t 0.499877909 -s 0 -d -1 -p tcp -e 1540 -c 2 -a 0 -i 34 -k AGT 
- -t 0.499877909 -s 0 -d -1 -p tcp -e 1540 -c 2 -a 0 -i 34 -k AGT
h -t 0.499877909 -s 0 -d -1 -p tcp -e 1540 -c 2 -a 0 -i 34 -k AGT
+ -t 0.499877909 -s 0 -d -1 -p tcp -e 1540 -c 2 -a 0 -i 35 -k AGT 
- -t 0.499877909 -s 0 -d -1 -p tcp -e 1540 -c 2 -a 0 -i 35 -k AGT
h -t 0.499877909 -s 0 -d -1 -p tcp -e 1540 -c 2 -a 0 -i 35 -k AGT
+ -t 0.499877909 -s 0 -d 5 -p tcp -e 1540 -c 2 -a 0 -i 34 -k RTR 
- -t 0.499877909 -s 0 -d 5 -p tcp -e 1540 -c 2 -a 0 -i 34 -k RTR
h -t 0.499877909 -s 0 -d 5 -p tcp -e 1540 -c 2 -a 0 -i 34 -k RTR
+ -t 0.499877909 -s 0 -d 5 -p tcp -e 1540 -c 2 -a 0 -i 35 -k RTR 
- -t 0.499877909 -s 0 -d 5 -p tcp -e 1540 -c 2 -a 0 -i 35 -k RTR
h -t 0.499877909 -s 0 -d 5 -p tcp -e 1540 -c 2 -a 0 -i 35 -k RTR
+ -t 0.514062669 -s 5 -d 4 -p tcp -e 1540 -c 2 -a 0 -i 28 -k RTR 
- -t 0.514062669 -s 5 -d 4 -p tcp -e 1540 -c 2 -a 0 -i 28 -k RTR
h -t 0.514062669 -s 5 -d 4 -p tcp -e 1540 -c 2 -a 0 -i 28 -k RTR
r -t 0.528049020 -s 4 -d 4 -p tcp -e 1540 -c 2 -a 0 -i 26 -k AGT
+ -t 0.528049020 -s 4 -d -1 -p ack -e 40 -c 2 -a 0 -i 36 -k AGT 
- -t 0.528049020 -s 4 -d -1 -p ack -e 40 -c 2 -a 0 -i 36 -k AGT
h -t 0.528049020 -s 4 -d -1 -p ack -e 40 -c 2 -a 0 -i 36 -k AGT
+ -t 0.528049020 -s 4 -d 5 -p ack -e 40 -c 2 -a 0 -i 36 -k RTR 
- -t 0.528049020 -s 4 -d 5 -p ack -e 40 -c 2 -a 0 -i 36 -k RTR
h -t 0.528049020 -s 4 -d 5 -p ack -e 40 -c 2 -a 0 -i 36 -k RTR
+ -t 0.529975372 -s 5 -d 0 -p ack -e 40 -c 2 -a 0 -i 30 -k RTR 
- -t 0.529975372 -s 5 -d 0 -p ack -e 40 -c 2 -a 0 -i 30 -k RTR
h -t 0.529975372 -s 5 -d 0 -p ack -e 40 -c 2 -a 0 -i 30 -k RTR
+ -t 0.531822507 -s 5 -d 0 -p ack -e 40 -c 2 -a 0 -i 31 -k RTR 
- -t 0.531822507 -s 5 -d 0 -p ack -e 40 -c 2 -a 0 -i 31 -k RTR
h -t 0.531822507 -s 5 -d 0 -p ack -e 40 -c 2 -a 0 -i 31 -k RTR
r -t 0.533707267 -s 0 -d 0 -p ack -e 40 -c 2 -a 0 -i 25 -k AGT
+ -t 0.533707267 -s 0 -d -1 -p tcp -e 1540 -c 2 -a 0 -i 37 -k AGT 
- -t 0.533707267 -s 0 -d -1 -p tcp -e 1540 -c 2 -a 0 -i 37 -k AGT
h -t 0.533707267 -s 0 -d -1 -p tcp -e 1540 -c 2 -a 0 -i 37 -k AGT
+ -t 0.533707267 -s 0 -d -1 -p tcp -e 1540 -c 2 -a 0 -i 38 -k AGT 
- -t 0.533707267 -s 0 -d -1 -p tcp -e 1540 -c 2 -a 0 -i 38 -k AGT
h -t 0.533707267 -s 0 -d -1 -p tcp -e 1540 -c 2 -a 0 -i 38 -k AGT
+ -t 0.533707267 -s 0 -d 5 -p tcp -e 1540 -c 2 -a 0 -i 37 -k RTR 
- -t 0.533707267 -s 0 -d 5 -p tcp -e 1540 -c 2 -a 0 -i 37 -k RTR
h -t 0.533707267 -s 0 -d 5 -p tcp -e 1540 -c 2 -a 0 -i 37 -k RTR
+ -t 0.533707267 -s 0 -d 5 -p tcp -e 1540 -c 2 -a 0 -i 38 -k RTR 
- -t 0.533707267 -s 0 -d 5 -p tcp -e 1540 -c 2 -a 0 -i 38 -k RTR
h -t 0.533707267 -s 0 -d 5 -p tcp -e 1540 -c 2 -a 0 -i 38 -k RTR
r -t 0.547633872 -s 4 -d 4 -p tcp -e 1540 -c 2 -a 0 -i 27 -k AGT
+ -t 0.547633872 -s 4 -d -1 -p ack -e 40 -c 2 -a 0 -i 39 -k AGT 
- -t 0.547633872 -s 4 -d -1 -p ack -e 40 -c 2 -a 0 -i 39 -k AGT
h -t 0.547633872 -s 4 -d -1 -p ack -e 40 -c 2 -a 0 -i 39 -k AGT
+ -t 0.547633872 -s 4 -d 5 -p ack -e 40 -c 2 -a 0 -i 39 -k RTR 
- -t 0.547633872 -s 4 -d 5 -p ack -e 40 -c 2 -a 0 -i 39 -k RTR
h -t 0.547633872 -s 4 -d 5 -p ack -e 40 -c 2 -a 0 -i 39 -k RTR
r -t 0.561461007 -s 4 -d 4 -p tcp -e 1540 -c 2 -a 0 -i 28 -k AGT
+ -t 0.561461007 -s 4 -d -1 -p ack -e 40 -c 2 -a 0 -i 40 -k AGT 
- -t 0.561461007 -s 4 -d -1 -p ack -e 40 -c 2 -a 0 -i 40 -k AGT
h -t 0.561461007 -s 4 -d -1 -p ack -e 40 -c 2 -a 0 -i 40 -k AGT
+ -t 0.561461007 -s 4 -d 5 -p ack -e 40 -c 2 -a 0 -i 40 -k RTR 
- -t 0.561461007 -s 4 -d 5 -p ack -e 40 -c 2 -a 0 -i 40 -k RTR
h -t 0.561461007 -s 4 -d 5 -p ack -e 40 -c 2 -a 0 -i 40 -k RTR
r -t 0.563346551 -s 0 -d 0 -p ack -e 40 -c 2 -a 0 -i 30 -k AGT
+ -t 0.563346551 -s 0 -d -1 -p tcp -e 1540 -c 2 -a 0 -i 41 -k AGT 
- -t 0.563346551 -s 0 -d -1 -p tcp -e 1540 -c 2 -a 0 -i 41 -k AGT
h -t 0.563346551 -s 0 -d -1 -p tcp -e 1540 -c 2 -a 0 -i 41 -k AGT
+ -t 0.563346551 -s 0 -d -1 -p tcp -e 1540 -c 2 -a 0 -i 42 -k AGT 
- -t 0.563346551 -s 0 -d -1 -p tcp -e 1540 -c 2 -a 0 -i 42 -k AGT
h -t 0.563346551 -s 0 -d -1 -p tcp -e 1540 -c 2 -a 0 -i 42 -k AGT
+ -t 0.563346551 -s 0 -d 5 -p tcp -e 1540 -c 2 -a 0 -i 41 -k RTR 
- -t 0.563346551 -s 0 -d 5 -p tcp -e 1540 -c 2 -a 0 -i 41 -k RTR
h -t 0.563346551 -s 0 -d 5 -p tcp -e 1540 -c 2 -a 0 -i 41 -k RTR
+ -t 0.563346551 -s 0 -d 5 -p tcp -e 1540 -c 2 -a 0 -i 42 -k RTR 
- -t 0.563346551 -s 0 -d 5 -p tcp -e 1540 -c 2 -a 0 -i 42 -k RTR
h -t 0.563346551 -s 0 -d 5 -p tcp -e 1540 -c 2 -a 0 -i 42 -k RTR
+ -t 0.577231310 -s 5 -d 4 -p tcp -e 1540 -c 2 -a 0 -i 29 -k RTR 
- -t 0.577231310 -s 5 -d 4 -p tcp -e 1540 -c 2 -a 0 -i 29 -k RTR
h -t 0.577231310 -s 5 -d 4 -p tcp -e 1540 -c 2 -a 0 -i 29 -k RTR
+ -t 0.579248366 -s 5 -d 0 -p ack -e 40 -c 2 -a 0 -i 32 -k RTR 
- -t 0.579248366 -s 5 -d 0 -p ack -e 40 -c 2 -a 0 -i 32 -k RTR
h -t 0.579248366 -s 5 -d 0 -p ack -e 40 -c 2 -a 0 -i 32 -k RTR
r -t 0.581353126 -s 0 -d 0 -p ack -e 40 -c 2 -a 0 -i 31 -k AGT
+ -t 0.581353126 -s 0 -d -1 -p tcp -e 1540 -c 2 -a 0 -i 43 -k AGT 
- -t 0.581353126 -s 0 -d -1 -p tcp -e 1540 -c 2 -a 0 -i 43 -k AGT
h -t 0.581353126 -s 0 -d -1 -p tcp -e 1540 -c 2 -a 0 -i 43 -k AGT
+ -t 0.581353126 -s 0 -d -1 -p tcp -e 1540 -c 2 -a 0 -i 44 -k AGT 
- -t 0.581353126 -s 0 -d -1 -p tcp -e 1540 -c 2 -a 0 -i 44 -k AGT
h -t 0.581353126 -s 0 -d -1 -p tcp -e 1540 -c 2 -a 0 -i 44 -k AGT
+ -t 0.581353126 -s 0 -d 5 -p tcp -e 1540 -c 2 -a 0 -i 43 -k RTR 
- -t 0.581353126 -s 0 -d 5 -p tcp -e 1540 -c 2 -a 0 -i 43 -k RTR
h -t 0.581353126 -s 0 -d 5 -p tcp -e 1540 -c 2 -a 0 -i 43 -k RTR
+ -t 0.581353126 -s 0 -d 5 -p tcp -e 1540 -c 2 -a 0 -i 44 -k RTR 
- -t 0.581353126 -s 0 -d 5 -p tcp -e 1540 -c 2 -a 0 -i 44 -k RTR
h -t 0.581353126 -s 0 -d 5 -p tcp -e 1540 -c 2 -a 0 -i 44 -k RTR
r -t 0.595199731 -s 4 -d 4 -p tcp -e 1540 -c 2 -a 0 -i 29 -k AGT
+ -t 0.595199731 -s 4 -d -1 -p ack -e 40 -c 2 -a 0 -i 45 -k AGT 
- -t 0.595199731 -s 4 -d -1 -p ack -e 40 -c 2 -a 0 -i 45 -k AGT
h -t 0.595199731 -s 4 -d -1 -p ack -e 40 -c 2 -a 0 -i 45 -k AGT
+ -t 0.595199731 -s 4 -d 5 -p ack -e 40 -c 2 -a 0 -i 45 -k RTR 
- -t 0.595199731 -s 4 -d 5 -p ack -e 40 -c 2 -a 0 -i 45 -k RTR
h -t 0.595199731 -s 4 -d 5 -p ack -e 40 -c 2 -a 0 -i 45 -k RTR
r -t 0.597045274 -s 0 -d 0 -p ack -e 40 -c 2 -a 0 -i 32 -k AGT
+ -t 0.597045274 -s 0 -d -1 -p tcp -e 1540 -c 2 -a 0 -i 46 -k AGT 