s 0.010000000 _0_ AGT  --- 0 tcp 40 [0 0 0 0] ------- [0:0 4:0 32 0] [0 0] 0 0
r 0.010000000 _0_ RTR  --- 0 tcp 40 [0 0 0 0] ------- [0:0 4:0 32 0] [0 0] 0 0
s 0.010000000 _0_ RTR  --- 0 AODV 48 [0 0 0 0] ------- [0:255 -1:255 30 0] [0x2 1 1 [4 0] [0 4]] (REQUEST)
r 0.010988253 _5_ RTR  --- 0 AODV 48 [0 ffffffff 0 800] ------- [0:255 -1:255 30 0] [0x2 1 1 [4 0] [0 4]] (REQUEST)
r 0.010988422 _13_ RTR  --- 0 AODV 48 [0 ffffffff 0 800] ------- [0:255 -1:255 30 0] [0x2 1 1 [4 0] [0 4]] (REQUEST)
r 0.010988514 _11_ RTR  --- 0 AODV 48 [0 ffffffff 0 800] ------- [0:255 -1:255 30 0] [0x2 1 1 [4 0] [0 4]] (REQUEST)
s 0.011869480 _5_ RTR  --- 0 AODV 48 [0 ffffffff 0 800] ------- [5:255 -1:255 29 0] [0x2 2 1 [4 0] [0 4]] (REQUEST)
r 0.012977733 _0_ RTR  --- 0 AODV 48 [0 ffffffff 5 800] ------- [5:255 -1:255 29 0] [0x2 2 1 [4 0] [0 4]] (REQUEST)
r 0.012978152 _13_ RTR  --- 0 AODV 48 [0 ffffffff 5 800] ------- [5:255 -1:255 29 0] [0x2 2 1 [4 0] [0 4]] (REQUEST)
r 0.012978164 _11_ RTR  --- 0 AODV 48 [0 ffffffff 5 800] ------- [5:255 -1:255 29 0] [0x2 2 1 [4 0] [0 4]] (REQUEST)
r 0.012978264 _4_ RTR  --- 0 AODV 48 [0 ffffffff 5 800] ------- [5:255 -1:255 29 0] [0x2 2 1 [4 0] [0 4]] (REQUEST)
s 0.012978264 _4_ RTR  --- 0 AODV 44 [0 0 0 0] ------- [4:255 0:255 30 5] [0x4 1 [4 4] 10.000000] (REPLY)
s 0.015400156 _13_ RTR  --- 0 AODV 48 [0 ffffffff 0 800] ------- [13:255 -1:255 29 0] [0x2 2 1 [4 0] [0 4]] (REQUEST)
r 0.017626751 _5_ RTR  --- 0 AODV 44 [13a 5 4 800] ------- [4:255 0:255 30 5] [0x4 1 [4 4] 10.000000] (REPLY)
f 0.017626751 _5_ RTR  --- 0 AODV 44 [13a 5 4 800] ------- [4:255 0:255 29 0] [0x4 2 [4 4] 10.000000] (REPLY)
s 0.018980068 _11_ RTR  --- 0 AODV 48 [0 ffffffff 0 800] ------- [11:255 -1:255 29 0] [0x2 2 1 [4 0] [0 4]] (REQUEST)
r 0.019129648 _0_ RTR  --- 0 AODV 48 [0 ffffffff d 800] ------- [13:255 -1:255 29 0] [0x2 2 1 [4 0] [0 4]] (REQUEST)
r 0.019129763 _11_ RTR  --- 0 AODV 48 [0 ffffffff d 800] ------- [13:255 -1:255 29 0] [0x2 2 1 [4 0] [0 4]] (REQUEST)
r 0.019129898 _5_ RTR  --- 0 AODV 48 [0 ffffffff d 800] ------- [13:255 -1:255 29 0] [0x2 2 1 [4 0] [0 4]] (REQUEST)
r 0.019129978 _1_ RTR  --- 0 AODV 48 [0 ffffffff d 800] ------- [13:255 -1:255 29 0] [0x2 2 1 [4 0] [0 4]] (REQUEST)
r 0.021127096 _0_ RTR  --- 0 AODV 48 [0 ffffffff b 800] ------- [11:255 -1:255 29 0] [0x2 2 1 [4 0] [0 4]] (REQUEST)
r 0.021127119 _13_ RTR  --- 0 AODV 48 [0 ffffffff b 800] ------- [11:255 -1:255 29 0] [0x2 2 1 [4 0] [0 4]] (REQUEST)
r 0.021127266 _5_ RTR  --- 0 AODV 48 [0 ffffffff b 800] ------- [11:255 -1:255 29 0] [0x2 2 1 [4 0] [0 4]] (REQUEST)
r 0.021127361 _3_ RTR  --- 0 AODV 48 [0 ffffffff b 800] ------- [11:255 -1:255 29 0] [0x2 2 1 [4 0] [0 4]] (REQUEST)
s 0.023366545 _1_ RTR  --- 0 AODV 48 [0 ffffffff d 800] ------- [1:255 -1:255 28 0] [0x2 3 1 [4 0] [0 4]] (REQUEST)
s 0.024614771 _3_ RTR  --- 0 AODV 48 [0 ffffffff b 800] ------- [3:255 -1:255 28 0] [0x2 3 1 [4 0] [0 4]] (REQUEST)
r 0.024778615 _0_ RTR  --- 0 AODV 44 [13a 0 5 800] ------- [4:255 0:255 29 0] [0x4 2 [4 4] 10.000000] (REPLY)
s 0.024778615 _0_ RTR  --- 0 tcp 40 [0 0 0 0] ------- [0:0 4:0 30 5] [0 0] 0 0
r 0.026723374 _5_ RTR  --- 0 tcp 40 [13a 5 0 800] ------- [0:0 4:0 30 5] [0 0] 1 0
f 0.026723374 _5_ RTR  --- 0 tcp 40 [13a 5 0 800] ------- [0:0 4:0 29 4] [0 0] 1 0
r 0.028889726 _4_ AGT  --- 0 tcp 40 [13a 4 5 800] ------- [0:0 4:0 29 4] [0 0] 2 0
s 0.028889726 _4_ AGT  --- 1 ack 40 [0 0 0 0] ------- [4:0 0:0 32 0] [0 0] 0 0
r 0.028889726 _4_ RTR  --- 1 ack 40 [0 0 0 0] ------- [4:0 0:0 32 0] [0 0] 0 0
s 0.028889726 _4_ RTR  --- 1 ack 40 [0 0 0 0] ------- [4:0 0:0 30 5] [0 0] 0 0
r 0.031490115 _11_ RTR  --- 0 AODV 48 [0 ffffffff 3 800] ------- [3:255 -1:255 28 0] [0x2 3 1 [4 0] [0 4]] (REQUEST)
r 0.033427298 _5_ RTR  --- 1 ack 40 [13a 5 4 800] ------- [4:0 0:0 30 5] [0 0] 1 0
f 0.033427298 _5_ RTR  --- 1 ack 40 [13a 5 4 800] ------- [4:0 0:0 29 0] [0 0] 1 0
r 0.035492057 _0_ AGT  --- 1 ack 40 [13a 0 5 800] ------- [4:0 0:0 29 0] [0 0] 2 0
s 0.035492057 _0_ AGT  --- 2 tcp 1540 [0 0 0 0] ------- [0:0 4:0 32 0] [1 0] 0 0
r 0.035492057 _0_ RTR  --- 2 tcp 1540 [0 0 0 0] ------- [0:0 4:0 32 0] [1 0] 0 0
s 0.035492057 _0_ AGT  --- 3 tcp 1540 [0 0 0 0] ------- [0:0 4:0 32 0] [2 0] 0 0
r 0.035492057 _0_ RTR  --- 3 tcp 1540 [0 0 0 0] ------- [0:0 4:0 32 0] [2 0] 0 0
s 0.035492057 _0_ RTR  --- 2 tcp 1540 [0 0 0 0] ------- [0:0 4:0 30 5] [1 0] 0 0
s 0.035492057 _0_ RTR  --- 3 tcp 1540 [0 0 0 0] ------- [0:0 4:0 30 5] [2 0] 0 0
r 0.049676817 _5_ RTR  --- 2 tcp 1540 [13a 5 0 800] ------- [0:0 4:0 30 5] [1 0] 1 0
f 0.049676817 _5_ RTR  --- 2 tcp 1540 [13a 5 0 800] ------- [0:0 4:0 29 4] [1 0] 1 0
r 0.063583169 _4_ AGT  --- 2 tcp 1540 [13a 4 5 800] ------- [0:0 4:0 29 4] [1 0] 2 0
s 0.063583169 _4_ AGT  --- 4 ack 40 [0 0 0 0] ------- [4:0 0:0 32 0] [1 0] 0 0
r 0.063583169 _4_ RTR  --- 4 ack 40 [0 0 0 0] ------- [4:0 0:0 32 0] [1 0] 0 0
s 0.063583169 _4_ RTR  --- 4 ack 40 [0 0 0 0] ------- [4:0 0:0 30 5] [1 0] 0 0
r 0.065469520 _5_ RTR  --- 4 ack 40 [13a 5 4 800] ------- [4:0 0:0 30 5] [1 0] 1 0
f 0.065469520 _5_ RTR  --- 4 ack 40 [13a 5 4 800] ------- [4:0 0:0 29 0] [1 0] 1 0
r 0.067434280 _0_ AGT  --- 4 ack 40 [13a 0 5 800] ------- [4:0 0:0 29 0] [1 0] 2 0
s 0.067434280 _0_ AGT  --- 5 tcp 1540 [0 0 0 0] ------- [0:0 4:0 32 0] [3 0] 0 0
r 0.067434280 _0_ RTR  --- 5 tcp 1540 [0 0 0 0] ------- [0:0 4:0 32 0] [3 0] 0 0
s 0.067434280 _0_ AGT  --- 6 tcp 1540 [0 0 0 0] ------- [0:0 4:0 32 0] [4 0] 0 0
r 0.067434280 _0_ RTR  --- 6 tcp 1540 [0 0 0 0] ------- [0:0 4:0 32 0] [4 0] 0 0
s 0.067434280 _0_ RTR  --- 5 tcp 1540 [0 0 0 0] ------- [0:0 4:0 30 5] [3 0] 0 0
s 0.067434280 _0_ RTR  --- 6 tcp 1540 [0 0 0 0] ------- [0:0 4:0 30 5] [4 0] 0 0
r 0.081399039 _5_ RTR  --- 3 tcp 1540 [13a 5 0 800] ------- [0:0 4:0 30 5] [2 0] 1 0
f 0.081399039 _5_ RTR  --- 3 tcp 1540 [13a 5 0 800] ------- [0:0 4:0 29 4] [2 0] 1 0
r 0.095444052 _5_ RTR  --- 5 tcp 1540 [13a 5 0 800] ------- [0:0 4:0 30 5] [3 0] 1 0
f 0.095444052 _5_ RTR  --- 5 tcp 1540 [13a 5 0 800] ------- [0:0 4:0 29 4] [3 0] 1 0
r 0.109430404 _4_ AGT  --- 3 tcp 1540 [13a 4 5 800] ------- [0:0 4:0 29 4] [2 0] 2 0
s 0.109430404 _4_ AGT  --- 7 ack 40 [0 0 0 0] ------- [4:0 0:0 32 0] [2 0] 0 0
r 0.109430404 _4_ RTR  --- 7 ack 40 [0 0 0 0] ------- [4:0 0:0 32 0] [2 0] 0 0
s 0.109430404 _4_ RTR  --- 7 ack 40 [0 0 0 0] ------- [4:0 0:0 30 5] [2 0] 0 0
r 0.123317539 _4_ AGT  --- 5 tcp 1540 [13a 4 5 800] ------- [0:0 4:0 29 4] [3 0] 2 0
s 0.123317539 _4_ AGT  --- 8 ack 40 [0 0 0 0] ------- [4:0 0:0 32 0] [3 0] 0 0
r 0.123317539 _4_ RTR  --- 8 ack 40 [0 0 0 0] ------- [4:0 0:0 32 0] [3 0] 0 0
s 0.123317539 _4_ RTR  --- 8 ack 40 [0 0 0 0] ------- [4:0 0:0 30 5] [3 0] 0 0
r 0.137547256 _5_ RTR  --- 6 tcp 1540 [13a 5 0 800] ------- [0:0 4:0 30 5] [4 0] 1 0
f 0.137547256 _5_ RTR  --- 6 tcp 1540 [13a 5 0 800] ------- [0:0 4:0 29 4] [4 0] 1 0
r 0.139544312 _5_ RTR  --- 7 ack 40 [13a 5 4 800] ------- [4:0 0:0 30 5] [2 0] 1 0
f 0.139544312 _5_ RTR  --- 7 ack 40 [13a 5 4 800] ------- [4:0 0:0 29 0] [2 0] 1 0
r 0.153550664 _4_ AGT  --- 6 tcp 1540 [13a 4 5 800] ------- [0:0 4:0 29 4] [4 0] 2 0
s 0.153550664 _4_ AGT  --- 9 ack 40 [0 0 0 0] ------- [4:0 0:0 32 0] [4 0] 0 0
r 0.153550664 _4_ RTR  --- 9 ack 40 [0 0 0 0] ------- [4:0 0:0 32 0] [4 0] 0 0
s 0.153550664 _4_ RTR  --- 9 ack 40 [0 0 0 0] ------- [4:0 0:0 30 5] [4 0] 0 0
r 0.155477015 _5_ RTR  --- 8 ack 40 [13a 5 4 800] ------- [4:0 0:0 30 5] [3 0] 1 0
f 0.155477015 _5_ RTR  --- 8 ack 40 [13a 5 4 800] ------- [4:0 0:0 29 0] [3 0] 1 0
r 0.157381775 _0_ AGT  --- 7 ack 40 [13a 0 5 800] ------- [4:0 0:0 29 0] [2 0] 2 0
s 0.157381775 _0_ AGT  --- 10 tcp 1540 [0 0 0 0] ------- [0:0 4:0 32 0] [5 0] 0 0
r 0.157381775 _0_ RTR  --- 10 tcp 1540 [0 0 0 0] ------- [0:0 4:0 32 0] [5 0] 0 0
s 0.157381775 _0_ AGT  --- 11 tcp 1540 [0 0 0 0] ------- [0:0 4:0 32 0] [6 0] 0 0
r 0.157381775 _0_ RTR  --- 11 tcp 1540 [0 0 0 0] ------- [0:0 4:0 32 0] [6 0] 0 0
s 0.157381775 _0_ RTR  --- 10 tcp 1540 [0 0 0 0] ------- [0:0 4:0 30 5] [5 0] 0 0
s 0.157381775 _0_ RTR  --- 11 tcp 1540 [0 0 0 0] ------- [0:0 4:0 30 5] [6 0] 0 0
r 0.171406535 _5_ RTR  --- 10 tcp 1540 [13a 5 0 800] ------- [0:0 4:0 30 5] [5 0] 1 0
f 0.171406535 _5_ RTR  --- 10 tcp 1540 [13a 5 0 800] ------- [0:0 4:0 29 4] [5 0] 1 0
r 0.185231548 _5_ RTR  --- 11 tcp 1540 [13a 5 0 800] ------- [0:0 4:0 30 5] [6 0] 1 0
f 0.185231548 _5_ RTR  --- 11 tcp 1540 [13a 5 0 800] ------- [0:0 4:0 29 4] [6 0] 1 0
r 0.187328603 _5_ RTR  --- 9 ack 40 [13a 5 4 800] ------- [4:0 0:0 30 5] [4 0] 1 0
f 0.187328603 _5_ RTR  --- 9 ack 40 [13a 5 4 800] ------- [4:0 0:0 29 0] [4 0] 1 0
r 0.189173363 _0_ AGT  --- 8 ack 40 [13a 0 5 800] ------- [4:0 0:0 29 0] [3 0] 2 0
s 0.189173363 _0_ AGT  --- 12 tcp 1540 [0 0 0 0] ------- [0:0 4:0 32 0] [7 0] 0 0
r 0.189173363 _0_ RTR  --- 12 tcp 1540 [0 0 0 0] ------- [0:0 4:0 32 0] [7 0] 0 0
s 0.189173363 _0_ AGT  --- 13 tcp 1540 [0 0 0 0] ------- [0:0 4:0 32 0] [8 0] 0 0
r 0.189173363 _0_ RTR  --- 13 tcp 1540 [0 0 0 0] ------- [0:0 4:0 32 0] [8 0] 0 0
s 0.189173363 _0_ RTR  --- 12 tcp 1540 [0 0 0 0] ------- [0:0 4:0 30 5] [7 0] 0 0
s 0.189173363 _0_ RTR  --- 13 tcp 1540 [0 0 0 0] ------- [0:0 4:0 30 5] [8 0] 0 0
r 0.203158123 _5_ RTR  --- 12 tcp 1540 [13a 5 0 800] ------- [0:0 4:0 30 5] [7 0] 1 0
f 0.203158123 _5_ RTR  --- 12 tcp 1540 [13a 5 0 800] ------- [0:0 4:0 29 4] [7 0] 1 0
r 0.217929135 _5_ RTR  --- 13 tcp 1540 [13a 5 0 800] ------- [0:0 4:0 30 5] [8 0] 1 0
f 0.217929135 _5_ RTR  --- 13 tcp 1540 [13a 5 0 800] ------- [0:0 4:0 29 4] [8 0] 1 0
r 0.232035487 _4_ AGT  --- 10 tcp 1540 [13a 4 5 800] ------- [0:0 4:0 29 4] [5 0] 2 0
s 0.232035487 _4_ AGT  --- 14 ack 40 [0 0 0 0] ------- [4:0 0:0 32 0] [5 0] 0 0
r 0.232035487 _4_ RTR  --- 14 ack 40 [0 0 0 0] ------- [4:0 0:0 32 0] [5 0] 0 0
s 0.232035487 _4_ RTR  --- 14 ack 40 [0 0 0 0] ------- [4:0 0:0 30 5] [5 0] 0 0
r 0.246142622 _4_ AGT  --- 11 tcp 1540 [13a 4 5 800] ------- [0:0 4:0 29 4] [6 0] 2 0
s 0.246142622 _4_ AGT  --- 15 ack 40 [0 0 0 0] ------- [4:0 0:0 32 0] [6 0] 0 0
r 0.246142622 _4_ RTR  --- 15 ack 40 [0 0 0 0] ------- [4:0 0:0 32 0] [6 0] 0 0
s 0.246142622 _4_ RTR  --- 15 ack 40 [0 0 0 0] ------- [4:0 0:0 30 5] [6 0] 0 0
r 0.249556542 _5_ RTR  --- 14 ack 40 [13a 5 4 800] ------- [4:0 0:0 30 5] [5 0] 1 0
f 0.249556542 _5_ RTR  --- 14 ack 40 [13a 5 4 800] ------- [4:0 0:0 29 0] [5 0] 1 0
r 0.252729677 _5_ RTR  --- 15 ack 40 [13a 5 4 800] ------- [4:0 0:0 30 5] [6 0] 1 0
f 0.252729677 _5_ RTR  --- 15 ack 40 [13a 5 4 800] ------- [4:0 0:0 29 0] [6 0] 1 0
r 0.254934437 _0_ AGT  --- 9 ack 40 [13a 0 5 800] ------- [4:0 0:0 29 0] [4 0] 2 0
s 0.254934437 _0_ AGT  --- 16 tcp 1540 [0 0 0 0] ------- [0:0 4:0 32 0] [9 0] 0 0
r 0.254934437 _0_ RTR  --- 16 tcp 1540 [0 0 0 0] ------- [0:0 4:0 32 0] [9 0] 0 0
s 0.254934437 _0_ AGT  --- 17 tcp 1540 [0 0 0 0] ------- [0:0 4:0 32 0] [10 0] 0 0
r 0.254934437 _0_ RTR  --- 17 tcp 1540 [0 0 0 0] ------- [0:0 4:0 32 0] [10 0] 0 0
s 0.254934437 _0_ RTR  --- 16 tcp 1540 [0 0 0 0] ------- [0:0 4:0 30 5] [9 0] 0 0
s 0.254934437 _0_ RTR  --- 17 tcp 1540 [0 0 0 0] ------- [0:0 4:0 30 5] [10 0] 0 0
r 0.268879197 _5_ RTR  --- 16 tcp 1540 [13a 5 0 800] ------- [0:0 4:0 30 5] [9 0] 1 0
f 0.268879197 _5_ RTR  --- 16 tcp 1540 [13a 5 0 800] ------- [0:0 4:0 29 4] [9 0] 1 0
r 0.282785548 _4_ AGT  --- 12 tcp 1540 [13a 4 5 800] ------- [0:0 4:0 29 4] [7 0] 2 0
s 0.282785548 _4_ AGT  --- 18 ack 40 [0 0 0 0] ------- [4:0 0:0 32 0] [7 0] 0 0
r 0.282785548 _4_ RTR  --- 18 ack 40 [0 0 0 0] ------- [4:0 0:0 32 0] [7 0] 0 0
s 0.282785548 _4_ RTR  --- 18 ack 40 [0 0 0 0] ------- [4:0 0:0 30 5] [7 0] 0 0
r 0.297477345 _5_ RTR  --- 17 tcp 1540 [13a 5 0 800] ------- [0:0 4:0 30 5] [10 0] 1 0
f 0.297477345 _5_ RTR  --- 17 tcp 1540 [13a 5 0 800] ------- [0:0 4:0 29 4] [10 0] 1 0
r 0.299414401 _5_ RTR  --- 18 ack 40 [13a 5 4 800] ------- [4:0 0:0 30 5] [7 0] 1 0
f 0.299414401 _5_ RTR  --- 18 ack 40 [13a 5 4 800] ------- [4:0 0:0 29 0] [7 0] 1 0
r 0.313480752 _4_ AGT  --- 13 tcp 1540 [13a 4 5 800] ------- [0:0 4:0 29 4] [8 0] 2 0
s 0.313480752 _4_ AGT  --- 19 ack 40 [0 0 0 0] ------- [4:0 0:0 32 0] [8 0] 0 0
r 0.313480752 _4_ RTR  --- 19 ack 40 [0 0 0 0] ------- [4:0 0:0 32 0] [8 0] 0 0
s 0.313480752 _4_ RTR  --- 19 ack 40 [0 0 0 0] ------- [4:0 0:0 30 5] [8 0] 0 0
r 0.315407104 _5_ RTR  --- 19 ack 40 [13a 5 4 800] ------- [4:0 0:0 30 5] [8 0] 1 0
f 0.315407104 _5_ RTR  --- 19 ack 40 [13a 5 4 800] ------- [4:0 0:0 29 0] [8 0] 1 0
r 0.317751864 _0_ AGT  --- 14 ack 40 [13a 0 5 800] ------- [4:0 0:0 29 0] [5 0] 2 0
s 0.317751864 _0_ AGT  --- 20 tcp 1540 [0 0 0 0] ------- [0:0 4:0 32 0] [11 0] 0 0
r 0.317751864 _0_ RTR  --- 20 tcp 1540 [0 0 0 0] ------- [0:0 4:0 32 0] [11 0] 0 0
s 0.317751864 _0_ AGT  --- 21 tcp 1540 [0 0 0 0] ------- [0:0 4:0 32 0] [12 0] 0 0
r 0.317751864 _0_ RTR  --- 21 tcp 1540 [0 0 0 0] ------- [0:0 4:0 32 0] [12 0] 0 0
s 0.317751864 _0_ RTR  --- 20 tcp 1540 [0 0 0 0] ------- [0:0 4:0 30 5] [11 0] 0 0
s 0.317751864 _0_ RTR  --- 21 tcp 1540 [0 0 0 0] ------- [0:0 4:0 30 5] [12 0] 0 0
r 0.331636623 _5_ RTR  --- 20 tcp 1540 [13a 5 0 800] ------- [0:0 4:0 30 5] [11 0] 1 0
f 0.331636623 _5_ RTR  --- 20 tcp 1540 [13a 5 0 800] ------- [0:0 4:0 29 4] [11 0] 1 0
r 0.345581636 _5_ RTR  --- 21 tcp 1540 [13a 5 0 800] ------- [0:0 4:0 30 5] [12 0] 1 0
f 0.345581636 _5_ RTR  --- 21 tcp 1540 [13a 5 0 800] ------- [0:0 4:0 29 4] [12 0] 1 0
r 0.347806396 _0_ AGT  --- 15 ack 40 [13a 0 5 800] ------- [4:0 0:0 29 0] [6 0] 2 0
s 0.347806396 _0_ AGT  --- 22 tcp 1540 [0 0 0 0] ------- [0:0 4:0 32 0] [13 0] 0 0
r 0.347806396 _0_ RTR  --- 22 tcp 1540 [0 0 0 0] ------- [0:0 4:0 32 0] [13 0] 0 0
s 0.347806396 _0_ AGT  --- 23 tcp 1540 [0 0 0 0] ------- [0:0 4:0 32 0] [14 0] 0 0
r 0.347806396 _0_ RTR  --- 23 tcp 1540 [0 0 0 0] ------- [0:0 4:0 32 0] [14 0] 0 0
s 0.347806396 _0_ RTR  --- 22 tcp 1540 [0 0 0 0] ------- [0:0 4:0 30 5] [13 0] 0 0
s 0.347806396 _0_ RTR  --- 23 tcp 1540 [0 0 0 0] ------- [0:0 4:0 30 5] [14 0] 0 0
r 0.361831155 _5_ RTR  --- 22 tcp 1540 [13a 5 0 800] ------- [0:0 4:0 30 5] [13 0] 1 0
f 0.361831155 _5_ RTR  --- 22 tcp 1540 [13a 5 0 800] ------- [0:0 4:0 29 4] [13 0] 1 0
r 0.375917507 _4_ AGT  --- 16 tcp 1540 [13a 4 5 800] ------- [0:0 4:0 29 4] [9 0] 2 0
s 0.375917507 _4_ AGT  --- 24 ack 40 [0 0 0 0] ------- [4:0 0:0 32 0] [9 0] 0 0
r 0.375917507 _4_ RTR  --- 24 ack 40 [0 0 0 0] ------- [4:0 0:0 32 0] [9 0] 0 0
s 0.375917507 _4_ RTR  --- 24 ack 40 [0 0 0 0] ------- [4:0 0:0 30 5] [9 0] 0 0
r 0.391109303 _5_ RTR  --- 23 tcp 1540 [13a 5 0 800] ------- [0:0 4:0 30 5] [14 0] 1 0
f 0.391109303 _5_ RTR  --- 23 tcp 1540 [13a 5 0 800] ------- [0:0 4:0 29 4] [14 0] 1 0
r 0.404955655 _4_ AGT  --- 17 tcp 1540 [13a 4 5 800] ------- [0:0 4:0 29 4] [10 0] 2 0
s 0.404955655 _4_ AGT  --- 25 ack 40 [0 0 0 0] ------- [4:0 0:0 32 0] [10 0] 0 0
r 0.404955655 _4_ RTR  --- 25 ack 40 [0 0 0 0] ------- [4:0 0:0 32 0] [10 0] 0 0
s 0.404955655 _4_ RTR  --- 25 ack 40 [0 0 0 0] ------- [4:0 0:0 30 5] [10 0] 0 0
r 0.407162007 _5_ RTR  --- 24 ack 40 [13a 5 4 800] ------- [4:0 0:0 30 5] [9 0] 1 0
f 0.407162007 _5_ RTR  --- 24 ack 40 [13a 5 4 800] ------- [4:0 0:0 29 0] [9 0] 1 0
r 0.410154334 _0_ AGT  --- 18 ack 40 [13a 0 5 800] ------- [4:0 0:0 29 0] [7 0] 2 0
s 0.410154334 _0_ AGT  --- 26 tcp 1540 [0 0 0 0] ------- [0:0 4:0 32 0] [15 0] 0 0
r 0.410154334 _0_ RTR  --- 26 tcp 1540 [0 0 0 0] ------- [0:0 4:0 32 0] [15 0] 0 0
s 0.410154334 _0_ AGT  --- 27 tcp 1540 [0 0 0 0] ------- [0:0 4:0 32 0] [16 0] 0 0
r 0.410154334 _0_ RTR  --- 27 tcp 1540 [0 0 0 0] ------- [0:0 4:0 32 0] [16 0] 0 0
s 0.410154334 _0_ RTR  --- 26 tcp 1540 [0 0 0 0] ------- [0:0 4:0 30 5] [15 0] 0 0
s 0.410154334 _0_ RTR  --- 27 tcp 1540 [0 0 0 0] ------- [0:0 4:0 30 5] [16 0] 0 0
r 0.412379347 _0_ AGT  --- 19 ack 40 [13a 0 5 800] ------- [4:0 0:0 29 0] [8 0] 2 0
s 0.412379347 _0_ AGT  --- 28 tcp 1540 [0 0 0 0] ------- [0:0 4:0 32 0] [17 0] 0 0
r 0.412379347 _0_ RTR  --- 28 tcp 1540 [0 0 0 0] ------- [0:0 4:0 32 0] [17 0] 0 0
s 0.412379347 _0_ AGT  --- 29 tcp 1540 [0 0 0 0] ------- [0:0 4:0 32 0] [18 0] 0 0
r 0.412379347 _0_ RTR  --- 29 tcp 1540 [0 0 0 0] ------- [0:0 4:0 32 0] [18 0] 0 0
s 0.412379347 _0_ RTR  --- 28 tcp 1540 [0 0 0 0] ------- [0:0 4:0 30 5] [17 0] 0 0
s 0.412379347 _0_ RTR  --- 29 tcp 1540 [0 0 0 0] ------- [0:0 4:0 30 5] [18 0] 0 0
r 0.426244106 _5_ RTR  --- 26 tcp 1540 [13a 5 0 800] ------- [0:0 4:0 30 5] [15 0] 1 0
f 0.426244106 _5_ RTR  --- 26 tcp 1540 [13a 5 0 800] ------- [0:0 4:0 29 4] [15 0] 1 0
r 0.440170458 _4_ AGT  --- 20 tcp 1540 [13a 4 5 800] ------- [0:0 4:0 29 4] [11 0] 2 0
s 0.440170458 _4_ AGT  --- 30 ack 40 [0 0 0 0] ------- [4:0 0:0 32 0] [11 0] 0 0
r 0.440170458 _4_ RTR  --- 30 ack 40 [0 0 0 0] ------- [4:0 0:0 32 0] [11 0] 0 0
s 0.440170458 _4_ RTR  --- 30 ack 40 [0 0 0 0] ------- [4:0 0:0 30 5] [11 0] 0 0
r 0.454217594 _4_ AGT  --- 21 tcp 1540 [13a 4 5 800] ------- [0:0 4:0 29 4] [12 0] 2 0
s 0.454217594 _4_ AGT  --- 31 ack 40 [0 0 0 0] ------- [4:0 0:0 32 0] [12 0] 0 0
r 0.454217594 _4_ RTR  --- 31 ack 40 [0 0 0 0] ------- [4:0 0:0 32 0] [12 0] 0 0
s 0.454217594 _4_ RTR  --- 31 ack 40 [0 0 0 0] ------- [4:0 0:0 30 5] [12 0] 0 0
r 0.468044729 _4_ AGT  --- 22 tcp 1540 [13a 4 5 800] ------- [0:0 4:0 29 4] [13 0] 2 0
s 0.468044729 _4_ AGT  --- 32 ack 40 [0 0 0 0] ------- [4:0 0:0 32 0] [13 0] 0 0
r 0.468044729 _4_ RTR  --- 32 ack 40 [0 0 0 0] ------- [4:0 0:0 32 0] [13 0] 0 0
s 0.468044729 _4_ RTR  --- 32 ack 40 [0 0 0 0] ------- [4:0 0:0 30 5] [13 0] 0 0
r 0.482011865 _4_ AGT  --- 23 tcp 1540 [13a 4 5 800] ------- [0:0 4:0 29 4] [14 0] 2 0
s 0.482011865 _4_ AGT  --- 33 ack 40 [0 0 0 0] ------- [4:0 0:0 32 0] [14 0] 0 0
r 0.482011865 _4_ RTR  --- 33 ack 40 [0 0 0 0] ------- [4:0 0:0 32 0] [14 0] 0 0
s 0.482011865 _4_ RTR  --- 33 ack 40 [0 0 0 0] ------- [4:0 0:0 30 5] [14 0] 0 0
r 0.484038216 _5_ RTR  --- 25 ack 40 [13a 5 4 800] ------- [4:0 0:0 30 5] [10 0] 1 0
f 0.484038216 _5_ RTR  --- 25 ack 40 [13a 5 4 800] ------- [4:0 0:0 29 0] [10 0] 1 0
r 0.497993149 _5_ RTR  --- 27 tcp 1540 [13a 5 0 800] ------- [0:0 4:0 30 5] [16 0] 1 0
f 0.497993149 _5_ RTR  --- 27 tcp 1540 [13a 5 0 800] ------- [0:0 4:0 29 4] [16 0] 1 0
r 0.499877909 _0_ AGT  --- 24 ack 40 [13a 0 5 800] ------- [4:0 0:0 29 0] [9 0] 2 0
s 0.499877909 _0_ AGT  --- 34 tcp 1540 [0 0 0 0] ------- [0:0 4:0 32 0] [19 0] 0 0
r 0.499877909 _0_ RTR  --- 34 tcp 1540 [0 0 0 0] ------- [0:0 4:0 32 0] [19 0] 0 0
s 0.499877909 _0_ AGT  --- 35 tcp 1540 [0 0 0 0] ------- [0:0 4:0 32 0] [20 0] 0 0
r 0.499877909 _0_ RTR  --- 35 tcp 1540 [0 0 0 0] ------- [0:0 4:0 32 0] [20 0] 0 0
s 0.499877909 _0_ RTR  --- 34 tcp 1540 [0 0 0 0] ------- [0:0 4:0 30 5] [19 0] 0 0
s 0.499877909 _0_ RTR  --- 35 tcp 1540 [0 0 0 0] ------- [0:0 4:0 30 5] [20 0] 0 0
r 0.514062669 _5_ RTR  --- 28 tcp 1540 [13a 5 0 800] ------- [0:0 4:0 30 5] [17 0] 1 0
f 0.514062669 _5_ RTR  --- 28 tcp 1540 [13a 5 0 800] ------- [0:0 4:0 29 4] [17 0] 1 0
r 0.528049020 _4_ AGT  --- 26 tcp 1540 [13a 4 5 800] ------- [0:0 4:0 29 4] [15 0] 2 0
s 0.528049020 _4_ AGT  --- 36 ack 40 [0 0 0 0] ------- [4:0 0:0 32 0] [15 0] 0 0
r 0.528049020 _4_ RTR  --- 36 ack 40 [0 0 0 0] ------- [4:0 0:0 32 0] [15 0] 0 0
s 0.528049020 _4_ RTR  --- 36 ack 40 [0 0 0 0] ------- [4:0 0:0 30 5] [15 0] 0 0
r 0.529975372 _5_ RTR  --- 30 ack 40 [13a 5 4 800] ------- [4:0 0:0 30 5] [11 0] 1 0
f 0.529975372 _5_ RTR  --- 30 ack 40 [13a 5 4 800] ------- [4:0 0:0 29 0] [11 0] 1 0
r 0.531822507 _5_ RTR  --- 31 ack 40 [13a 5 4 800] ------- [4:0 0:0 30 5] [12 0] 1 0
f 0.531822507 _5_ RTR  --- 31 ack 40 [13a 5 4 800] ------- [4:0 0:0 29 0] [12 0] 1 0
r 0.533707267 _0_ AGT  --- 25 ack 40 [13a 0 5 800] ------- [4:0 0:0 29 0] [10 0] 2 0
s 0.533707267 _0_ AGT  --- 37 tcp 1540 [0 0 0 0] ------- [0:0 4:0 32 0] [21 0] 0 0
r 0.533707267 _0_ RTR  --- 37 tcp 1540 [0 0 0 0] ------- [0:0 4:0 32 0] [21 0] 0 0
s 0.533707267 _0_ AGT  --- 38 tcp 1540 [0 0 0 0] ------- [0:0 4:0 32 0] [22 0] 0 0
r 0.533707267 _0_ RTR  --- 38 tcp 1540 [0 0 0 0] ------- [0:0 4:0 32 0] [22 0] 0 0
s 0.533707267 _0_ RTR  --- 37 tcp 1540 [0 0 0 0] ------- [0:0 4:0 30 5] [21 0] 0 0
s 0.533707267 _0_ RTR  --- 38 tcp 1540 [0 0 0 0] ------- [0:0 4:0 30 5] [22 0] 0 0
r 0.547633872 _4_ AGT  --- 27 tcp 1540 [13a 4 5 800] ------- [0:0 4:0 29 4] [16 0] 2 0
s 0.547633872 _4_ AGT  --- 39 ack 40 [0 0 0 0] ------- [4:0 0:0 32 0] [16 0] 0 0
r 0.547633872 _4_ RTR  --- 39 ack 40 [0 0 0 0] ------- [4:0 0:0 32 0] [16 0] 0 0
s 0.547633872 _4_ RTR  --- 39 ack 40 [0 0 0 0] ------- [4:0 0:0 30 5] [16 0] 0 0
r 0.561461007 _4_ AGT  --- 28 tcp 1540 [13a 4 5 800] ------- [0:0 4:0 29 4] [17 0] 2 0
s 0.561461007 _4_ AGT  --- 40 ack 40 [0 0 0 0] ------- [4:0 0:0 32 0] [17 0] 0 0
r 0.561461007 _4_ RTR  --- 40 ack 40 [0 0 0 0] ------- [4:0 0:0 32 0] [17 0] 0 0
s 0.561461007 _4_ RTR  --- 40 ack 40 [0 0 0 0] ------- [4:0 0:0 30 5] [17 0] 0 0
r 0.563346551 _0_ AGT  --- 30 ack 40 [13a 0 5 800] ------- [4:0 0:0 29 0] [11 0] 2 0
s 0.563346551 _0_ AGT  --- 41 tcp 1540 [0 0 0 0] ------- [0:0 4:0 32 0] [23 0] 0 0
r 0.563346551 _0_ RTR  --- 41 tcp 1540 [0 0 0 0] ------- [0:0 4:0 32 0] [23 0] 0 0
s 0.563346551 _0_ AGT  --- 42 tcp 1540 [0 0 0 0] ------- [0:0 4:0 32 0] [24 0] 0 0
r 0.563346551 _0_ RTR  --- 42 tcp 1540 [0 0 0 0] ------- [0:0 4:0 32 0] [24 0] 0 0
s 0.563346551 _0_ RTR  --- 41 tcp 1540 [0 0 0 0] ------- [0:0 4:0 30 5] [23 0] 0 0
s 0.563346551 _0_ RTR  --- 42 tcp 1540 [0 0 0 0] ------- [0:0 4:0 30 5] [24 0] 0 0
r 0.577231310 _5_ RTR  --- 29 tcp 1540 [13a 5 0 800] ------- [0:0 4:0 30 5] [18 0] 1 0
f 0.577231310 _5_ RTR  --- 29 tcp 1540 [13a 5 0 800] ------- [0:0 4:0 29 4] [18 0] 1 0
r 0.579248366 _5_ RTR  --- 32 ack 40 [13a 5 4 800] ------- [4:0 0:0 30 5] [13 0] 1 0
f 0.579248366 _5_ RTR  --- 32 ack 40 [13a 5 4 800] ------- [4:0 0:0 29 0] [13 0] 1 0
r 0.581353126 _0_ AGT  --- 31 ack 40 [13a 0 5 800] ------- [4:0 0:0 29 0] [12 0] 2 0
s 0.581353126 _0_ AGT  --- 43 tcp 1540 [0 0 0 0] ------- [0:0 4:0 32 0] [25 0] 0 0
r 0.581353126 _0_ RTR  --- 43 tcp 1540 [0 0 0 0] ------- [0:0 4:0 32 0] [25 0] 0 0
s 0.581353126 _0_ AGT  --- 44 tcp 1540 [0 0 0 0] ------- [0:0 4:0 32 0] [26 0] 0 0
r 0.581353126 _0_ RTR  --- 44 tcp 1540 [0 0 0 0] ------- [0:0 4:0 32 0] [26 0] 0 0
s 0.581353126 _0_ RTR  --- 43 tcp 1540 [0 0 0 0] ------- [0:0 4:0 30 5] [25 0] 0 0
s 0.581353126 _0_ RTR  --- 44 tcp 1540 [0 0 0 0] ------- [0:0 4:0 30 5] [26 0] 0 0
r 0.595199731 _4_ AGT  --- 29 tcp 1540 [13a 4 5 800] ------- [0:0 4:0 29 4] [18 0] 2 0
s 0.595199731 _4_ AGT  --- 45 ack 40 [0 0 0 0] ------- [4:0 0:0 32 0] [18 0] 0 0
r 0.595199731 _4_ RTR  --- 45 ack 40 [0 0 0 0] ------- [4:0 0:0 32 0] [18 0] 0 0
s 0.595199731 _4_ RTR  --- 45 ack 40 [0 0 0 0] ------- [4:0 0:0 30 5] [18 0] 0 0
r 0.597045274 _0_ AGT  --- 32 ack 40 [13a 0 5 800] ------- [4:0 0:0 29 0] [13 0] 2 0
s 0.597045274 _0_ AGT  --- 46 tcp 1540 [0 0 0 0] ------- [0:0 4:0 32 0] [27 0] 0 0
r 0.597045274 _0_ RTR  --- 46 tcp 1540 [0 0 0 0] ------- [0:0 4:0 32 0] [27 0] 0 0
s 0.597045274 _0_ AGT  --- 47 tcp 1540 [0 0 0 0] ------- [0:0 4:0 32 0] [28 0] 0 0
r 0.597045274 _0_ RTR  --- 47 tcp 1540 [0 0 0 0] ------- [0:0 4:0 32 0] [28 0] 0 0
s 0.597045274 _0_ RTR  --- 46 tcp 1540 [0 0 0 0] ------- [0:0 4:0 30 5] [27 0] 0 0
s 0.597045274 _0_ RTR  --- 47 tcp 1540 [0 0 0 0] ------- [0:0 4:0 30 5] [28 0] 0 0
r 0.611050034 _5_ RTR  --- 34 tcp 1540 [13a 5 0 800] ------- [0:0 4:0 30 5] [19 0] 1 0
f 0.611050034 _5_ RTR  --- 34 tcp 1540 [13a 5 0 800] ------- [0:0 4:0 29 4] [19 0] 1 0
r 0.624895046 _5_ RTR  --- 35 tcp 1540 [13a 5 0 800] ------- [0:0 4:0 30 5] [20 0] 1 0
f 0.624895046 _5_ RTR  --- 35 tcp 1540 [13a 5 0 800] ------- [0:0 4:0 29 4] [20 0] 1 0
r 0.638740059 _5_ RTR  --- 37 tcp 1540 [13a 5 0 800] ------- [0:0 4:0 30 5] [21 0] 1 0
f 0.638740059 _5_ RTR  --- 37 tcp 1540 [13a 5 0 800] ------- [0:0 4:0 29 4] [21 0] 1 0
r 0.640737115 _5_ RTR  --- 33 ack 40 [13a 5 4 800] ------- [4:0 0:0 30 5] [14 0] 1 0
f 0.640737115 _5_ RTR  --- 33 ack 40 [13a 5 4 800] ------- [4:0 0:0 29 0] [14 0] 1 0
r 0.654623467 _4_ AGT  --- 34 tcp 1540 [13a 4 5 800] ------- [0:0 4:0 29 4] [19 0] 2 0
s 0.654623467 _4_ AGT  --- 48 ack 40 [0 0 0 0] ------- [4:0 0:0 32 0] [19 0] 0 0
r 0.654623467 _4_ RTR  --- 48 ack 40 [0 0 0 0] ------- [4:0 0:0 32 0] [19 0] 0 0
s 0.654623467 _4_ RTR  --- 48 ack 40 [0 0 0 0] ------- [4:0 0:0 30 5] [19 0] 0 0
r 0.669636602 _4_ AGT  --- 35 tcp 1540 [13a 4 5 800] ------- [0:0 4:0 29 4] [20 0] 2 0
s 0.669636602 _4_ AGT  --- 49 ack 40 [0 0 0 0] ------- [4:0 0:0 32 0] [20 0] 0 0
r 0.669636602 _4_ RTR  --- 49 ack 40 [0 0 0 0] ------- [4:0 0:0 32 0] [20 0] 0 0
s 0.669636602 _4_ RTR  --- 49 ack 40 [0 0 0 0] ------- [4:0 0:0 30 5] [20 0] 0 0
r 0.683643738 _4_ AGT  --- 37 tcp 1540 [13a 4 5 800] ------- [0:0 4:0 29 4] [21 0] 2 0
s 0.683643738 _4_ AGT  --- 50 ack 40 [0 0 0 0] ------- [4:0 0:0 32 0] [21 0] 0 0
r 0.683643738 _4_ RTR  --- 50 ack 40 [0 0 0 0] ------- [4:0 0:0 32 0] [21 0] 0 0
s 0.683643738 _4_ RTR  --- 50 ack 40 [0 0 0 0] ------- [4:0 0:0 30 5] [21 0] 0 0
r 0.686009281 _0_ AGT  --- 33 ack 40 [13a 0 5 800] ------- [4:0 0:0 29 0] [14 0] 2 0
s 0.686009281 _0_ AGT  --- 51 tcp 1540 [0 0 0 0] ------- [0:0 4:0 32 0] [29 0] 0 0
r 0.686009281 _0_ RTR  --- 51 tcp 1540 [0 0 0 0] ------- [0:0 4:0 32 0] [29 0] 0 0
s 0.686009281 _0_ AGT  --- 52 tcp 1540 [0 0 0 0] ------- [0:0 4:0 32 0] [30 0] 0 0
r 0.686009281 _0_ RTR  --- 52 tcp 1540 [0 0 0 0] ------- [0:0 4:0 32 0] [30 0] 0 0
s 0.686009281 _0_ RTR  --- 51 tcp 1540 [0 0 0 0] ------- [0:0 4:0 30 5] [29 0] 0 0
s 0.686009281 _0_ RTR  --- 52 tcp 1540 [0 0 0 0] ------- [0:0 4:0 30 5] [30 0] 0 0
r 0.699854041 _5_ RTR  --- 38 tcp 1540 [13a 5 0 800] ------- [0:0 4:0 30 5] [22 0] 1 0
f 0.699854041 _5_ RTR  --- 38 tcp 1540 [13a 5 0 800] ------- [0:0 4:0 29 4] [22 0] 1 0
r 0.701771097 _5_ RTR  --- 36 ack 40 [13a 5 4 800] ------- [4:0 0:0 30 5] [15 0] 1 0
f 0.701771097 _5_ RTR  --- 36 ack 40 [13a 5 4 800] ------- [4:0 0:0 29 0] [15 0] 1 0
r 0.715677448 _4_ AGT  --- 38 tcp 1540 [13a 4 5 800] ------- [0:0 4:0 29 4] [22 0] 2 0
s 0.715677448 _4_ AGT  --- 53 ack 40 [0 0 0 0] ------- [4:0 0:0 32 0] [22 0] 0 0
r 0.715677448 _4_ RTR  --- 53 ack 40 [0 0 0 0] ------- [4:0 0:0 32 0] [22 0] 0 0
s 0.715677448 _4_ RTR  --- 53 ack 40 [0 0 0 0] ------- [4:0 0:0 30 5] [22 0] 0 0
r 0.717502992 _0_ AGT  --- 36 ack 40 [13a 0 5 800] ------- [4:0 0:0 29 0] [15 0] 2 0
s 0.717502992 _0_ AGT  --- 54 tcp 1540 [0 0 0 0] ------- [0:0 4:0 32 0] [31 0] 0 0
r 0.717502992 _0_ RTR  --- 54 tcp 1540 [0 0 0 0] ------- [0:0 4:0 32 0] [31 0] 0 0
s 0.717502992 _0_ AGT  --- 55 tcp 1540 [0 0 0 0] ------- [0:0 4:0 32 0] [32 0] 0 0
r 0.717502992 _0_ RTR  --- 55 tcp 1540 [0 0 0 0] ------- [0:0 4:0 32 0] [32 0] 0 0
s 0.717502992 _0_ RTR  --- 54 tcp 1540 [0 0 0 0] ------- [0:0 4:0 30 5] [31 0] 0 0
s 0.717502992 _0_ RTR  --- 55 tcp 1540 [0 0 0 0] ------- [0:0 4:0 30 5] [32 0] 0 0
r 0.731367751 _5_ RTR  --- 41 tcp 1540 [13a 5 0 800] ------- [0:0 4:0 30 5] [23 0] 1 0
f 0.731367751 _5_ RTR  --- 41 tcp 1540 [13a 5 0 800] ------- [0:0 4:0 29 4] [23 0] 1 0
r 0.745192764 _5_ RTR  --- 42 tcp 1540 [13a 5 0 800] ------- [0:0 4:0 30 5] [24 0] 1 0
f 0.745192764 _5_ RTR  --- 42 tcp 1540 [13a 5 0 800] ------- [0:0 4:0 29 4] [24 0] 1 0
r 0.759079116 _4_ AGT  --- 41 tcp 1540 [13a 4 5 800] ------- [0:0 4:0 29 4] [23 0] 2 0
s 0.759079116 _4_ AGT  --- 56 ack 40 [0 0 0 0] ------- [4:0 0:0 32 0] [23 0] 0 0
r 0.759079116 _4_ RTR  --- 56 ack 40 [0 0 0 0] ------- [4:0 0:0 32 0] [23 0] 0 0
s 0.759079116 _4_ RTR  --- 56 ack 40 [0 0 0 0] ------- [4:0 0:0 30 5] [23 0] 0 0
r 0.761085467 _5_ RTR  --- 39 ack 40 [13a 5 4 800] ------- [4:0 0:0 30 5] [16 0] 1 0
f 0.761085467 _5_ RTR  --- 39 ack 40 [13a 5 4 800] ------- [4:0 0:0 29 0] [16 0] 1 0
r 0.775311819 _4_ AGT  --- 42 tcp 1540 [13a 4 5 800] ------- [0:0 4:0 29 4] [24 0] 2 0
s 0.775311819 _4_ AGT  --- 57 ack 40 [0 0 0 0] ------- [4:0 0:0 32 0] [24 0] 0 0
r 0.775311819 _4_ RTR  --- 57 ack 40 [0 0 0 0] ------- [4:0 0:0 32 0] [24 0] 0 0
s 0.775311819 _4_ RTR  --- 57 ack 40 [0 0 0 0] ------- [4:0 0:0 30 5] [24 0] 0 0
r 0.777338171 _5_ RTR  --- 40 ack 40 [13a 5 4 800] ------- [4:0 0:0 30 5] [17 0] 1 0
f 0.777338171 _5_ RTR  --- 40 ack 40 [13a 5 4 800] ------- [4:0 0:0 29 0] [17 0] 1 0
r 0.791353104 _5_ RTR  --- 43 tcp 1540 [13a 5 0 800] ------- [0:0 4:0 30 5] [25 0] 1 0
f 0.791353104 _5_ RTR  --- 43 tcp 1540 [13a 5 0 800] ------- [0:0 4:0 29 4] [25 0] 1 0
r 0.793270160 _5_ RTR  --- 45 ack 40 [13a 5 4 800] ------- [4:0 0:0 30 5] [18 0] 1 0
f 0.793270160 _5_ RTR  --- 45 ack 40 [13a 5 4 800] ------- [4:0 0:0 29 0] [18 0] 1 0
r 0.796083295 _5_ RTR  --- 48 ack 40 [13a 5 4 800] ------- [4:0 0:0 30 5] [19 0] 1 0
f 0.796083295 _5_ RTR  --- 48 ack 40 [13a 5 4 800] ------- [4:0 0:0 29 0] [19 0] 1 0
r 0.798010431 _5_ RTR  --- 49 ack 40 [13a 5 4 800] ------- [4:0 0:0 30 5] [20 0] 1 0
f 0.798010431 _5_ RTR  --- 49 ack 40 [13a 5 4 800] ------- [4:0 0:0 29 0] [20 0] 1 0
r 0.812922932 _5_ RTR  --- 44 tcp 1540 [13a 5 0 800] ------- [0:0 4:0 30 5] [26 0] 1 0
f 0.812922932 _5_ RTR  --- 44 tcp 1540 [13a 5 0 800] ------- [0:0 4:0 29 4] [26 0] 1 0
r 0.814867691 _0_ AGT  --- 39 ack 40 [13a 0 5 800] ------- [4:0 0:0 29 0] [16 0] 2 0
s 0.814867691 _0_ AGT  --- 58 tcp 1540 [0 0 0 0] ------- [0:0 4:0 32 0] [33 0] 0 0
r 0.814867691 _0_ RTR  --- 58 tcp 1540 [0 0 0 0] ------- [0:0 4:0 32 0] [33 0] 0 0
s 0.814867691 _0_ AGT  --- 59 tcp 1540 [0 0 0 0] ------- [0:0 4:0 32 0] [34 0] 0 0
r 0.814867691 _0_ RTR  --- 59 tcp 1540 [0 0 0 0] ------- [0:0 4:0 32 0] [34 0] 0 0
s 0.814867691 _0_ RTR  --- 58 tcp 1540 [0 0 0 0] ------- [0:0 4:0 30 5] [33 0] 0 0
s 0.814867691 _0_ RTR  --- 59 tcp 1540 [0 0 0 0] ------- [0:0 4:0 30 5] [34 0] 0 0
r 0.816932704 _0_ AGT  --- 40 ack 40 [13a 0 5 800] ------- [4:0 0:0 29 0] [17 0] 2 0
s 0.816932704 _0_ AGT  --- 60 tcp 1540 [0 0 0 0] ------- [0:0 4:0 32 0] [35 0] 0 0
r 0.816932704 _0_ RTR  --- 60 tcp 1540 [0 0 0 0] ------- [0:0 4:0 32 0] [35 0] 0 0
s 0.816932704 _0_ AGT  --- 61 tcp 1540 [0 0 0 0] ------- [0:0 4:0 32 0] [36 0] 0 0
r 0.816932704 _0_ RTR  --- 61 tcp 1540 [0 0 0 0] ------- [0:0 4:0 32 0] [36 0] 0 0
s 0.816932704 _0_ RTR  --- 60 tcp 1540 [0 0 0 0] ------- [0:0 4:0 30 5] [35 0] 0 0