M 1.00000 0 (790.00, 591.00, 0.00), (353.00, 696.00), 3.00
M 1.00000 1 (579.00, 238.00, 0.00), (76.00, 652.00), 9.00
M 1.00000 2 (75.00, 973.00, 0.00), (15.00, 505.00), 8.00
M 1.00000 3 (779.00, 473.00, 0.00), (144.00, 866.00), 8.00
M 1.00000 4 (741.00, 312.00, 0.00), (223.00, 608.00), 7.00
s 1.000000000 _0_ AGT  --- 0 tcp 40 [0 0 0 0] ------- [0:0 4:0 32 0] [0 0] 0 0
r 1.000000000 _0_ RTR  --- 0 tcp 40 [0 0 0 0] ------- [0:0 4:0 32 0] [0 0] 0 0
s 1.000000000 _0_ RTR  --- 0 AODV 48 [0 0 0 0] ------- [0:255 -1:255 30 0] [0x2 1 1 [4 0] [0 4]] (REQUEST)
r 1.000988395 _3_ RTR  --- 0 AODV 48 [0 ffffffff 0 800] ------- [0:255 -1:255 30 0] [0x2 1 1 [4 0] [0 4]] (REQUEST)
s 1.001869622 _3_ RTR  --- 0 AODV 48 [0 ffffffff 0 800] ------- [3:255 -1:255 29 0] [0x2 2 1 [4 0] [0 4]] (REQUEST)
r 1.003138017 _0_ RTR  --- 0 AODV 48 [0 ffffffff 3 800] ------- [3:255 -1:255 29 0] [0x2 2 1 [4 0] [0 4]] (REQUEST)
r 1.003138173 _4_ RTR  --- 0 AODV 48 [0 ffffffff 3 800] ------- [3:255 -1:255 29 0] [0x2 2 1 [4 0] [0 4]] (REQUEST)
s 1.003138173 _4_ RTR  --- 0 AODV 44 [0 0 0 0] ------- [4:255 0:255 30 3] [0x4 1 [4 4] 10.000000] (REPLY)
r 1.007945033 _3_ RTR  --- 0 AODV 44 [13a 3 4 800] ------- [4:255 0:255 30 3] [0x4 1 [4 4] 10.000000] (REPLY)
f 1.007945033 _3_ RTR  --- 0 AODV 44 [13a 3 4 800] ------- [4:255 0:255 29 0] [0x4 2 [4 4] 10.000000] (REPLY)
r 1.013054798 _0_ RTR  --- 0 AODV 44 [13a 0 3 800] ------- [4:255 0:255 29 0] [0x4 2 [4 4] 10.000000] (REPLY)
s 1.013054798 _0_ RTR  --- 0 tcp 40 [0 0 0 0] ------- [0:0 4:0 30 3] [0 0] 0 0
r 1.015119982 _3_ RTR  --- 0 tcp 40 [13a 3 0 800] ------- [0:0 4:0 30 3] [0 0] 1 0
f 1.015119982 _3_ RTR  --- 0 tcp 40 [13a 3 0 800] ------- [0:0 4:0 29 4] [0 0] 1 0
r 1.017425637 _4_ AGT  --- 0 tcp 40 [13a 4 3 800] ------- [0:0 4:0 29 4] [0 0] 2 0
s 1.017425637 _4_ AGT  --- 1 ack 40 [0 0 0 0] ------- [4:0 0:0 32 0] [0 0] 0 0
r 1.017425637 _4_ RTR  --- 1 ack 40 [0 0 0 0] ------- [4:0 0:0 32 0] [0 0] 0 0
s 1.017425637 _4_ RTR  --- 1 ack 40 [0 0 0 0] ------- [4:0 0:0 30 3] [0 0] 0 0
r 1.019571291 _3_ RTR  --- 1 ack 40 [13a 3 4 800] ------- [4:0 0:0 30 3] [0 0] 1 0
f 1.019571291 _3_ RTR  --- 1 ack 40 [13a 3 4 800] ------- [4:0 0:0 29 0] [0 0] 1 0
r 1.021616475 _0_ AGT  --- 1 ack 40 [13a 0 3 800] ------- [4:0 0:0 29 0] [0 0] 2 0
s 1.021616475 _0_ AGT  --- 2 tcp 1540 [0 0 0 0] ------- [0:0 4:0 32 0] [1 0] 0 0
r 1.021616475 _0_ RTR  --- 2 tcp 1540 [0 0 0 0] ------- [0:0 4:0 32 0] [1 0] 0 0
s 1.021616475 _0_ AGT  --- 3 tcp 1540 [0 0 0 0] ------- [0:0 4:0 32 0] [2 0] 0 0
r 1.021616475 _0_ RTR  --- 3 tcp 1540 [0 0 0 0] ------- [0:0 4:0 32 0] [2 0] 0 0
s 1.021616475 _0_ RTR  --- 2 tcp 1540 [0 0 0 0] ------- [0:0 4:0 30 3] [1 0] 0 0
s 1.021616475 _0_ RTR  --- 3 tcp 1540 [0 0 0 0] ------- [0:0 4:0 30 3] [2 0] 0 0
r 1.035681660 _3_ RTR  --- 2 tcp 1540 [13a 3 0 800] ------- [0:0 4:0 30 3] [1 0] 1 0
f 1.035681660 _3_ RTR  --- 2 tcp 1540 [13a 3 0 800] ------- [0:0 4:0 29 4] [1 0] 1 0
r 1.049687238 _3_ RTR  --- 3 tcp 1540 [13a 3 0 800] ------- [0:0 4:0 30 3] [2 0] 1 0
f 1.049687238 _3_ RTR  --- 3 tcp 1540 [13a 3 0 800] ------- [0:0 4:0 29 4] [2 0] 1 0
r 1.063552893 _4_ AGT  --- 2 tcp 1540 [13a 4 3 800] ------- [0:0 4:0 29 4] [1 0] 2 0
s 1.063552893 _4_ AGT  --- 4 ack 40 [0 0 0 0] ------- [4:0 0:0 32 0] [1 0] 0 0
r 1.063552893 _4_ RTR  --- 4 ack 40 [0 0 0 0] ------- [4:0 0:0 32 0] [1 0] 0 0
s 1.063552893 _4_ RTR  --- 4 ack 40 [0 0 0 0] ------- [4:0 0:0 30 3] [1 0] 0 0
r 1.065778548 _3_ RTR  --- 4 ack 40 [13a 3 4 800] ------- [4:0 0:0 30 3] [1 0] 1 0
f 1.065778548 _3_ RTR  --- 4 ack 40 [13a 3 4 800] ------- [4:0 0:0 29 0] [1 0] 1 0
r 1.079744202 _4_ AGT  --- 3 tcp 1540 [13a 4 3 800] ------- [0:0 4:0 29 4] [2 0] 2 0
s 1.079744202 _4_ AGT  --- 5 ack 40 [0 0 0 0] ------- [4:0 0:0 32 0] [2 0] 0 0
r 1.079744202 _4_ RTR  --- 5 ack 40 [0 0 0 0] ------- [4:0 0:0 32 0] [2 0] 0 0
s 1.079744202 _4_ RTR  --- 5 ack 40 [0 0 0 0] ------- [4:0 0:0 30 3] [2 0] 0 0
r 1.081609936 _0_ AGT  --- 4 ack 40 [13a 0 3 800] ------- [4:0 0:0 29 0] [1 0] 2 0
s 1.081609936 _0_ AGT  --- 6 tcp 1540 [0 0 0 0] ------- [0:0 4:0 32 0] [3 0] 0 0
r 1.081609936 _0_ RTR  --- 6 tcp 1540 [0 0 0 0] ------- [0:0 4:0 32 0] [3 0] 0 0
s 1.081609936 _0_ AGT  --- 7 tcp 1540 [0 0 0 0] ------- [0:0 4:0 32 0] [4 0] 0 0
r 1.081609936 _0_ RTR  --- 7 tcp 1540 [0 0 0 0] ------- [0:0 4:0 32 0] [4 0] 0 0
s 1.081609936 _0_ RTR  --- 6 tcp 1540 [0 0 0 0] ------- [0:0 4:0 30 3] [3 0] 0 0
s 1.081609936 _0_ RTR  --- 7 tcp 1540 [0 0 0 0] ------- [0:0 4:0 30 3] [4 0] 0 0
r 1.095895119 _3_ RTR  --- 6 tcp 1540 [13a 3 0 800] ------- [0:0 4:0 30 3] [3 0] 1 0
f 1.095895119 _3_ RTR  --- 6 tcp 1540 [13a 3 0 800] ------- [0:0 4:0 29 4] [3 0] 1 0
r 1.109860695 _3_ RTR  --- 7 tcp 1540 [13a 3 0 800] ------- [0:0 4:0 30 3] [4 0] 1 0
f 1.109860695 _3_ RTR  --- 7 tcp 1540 [13a 3 0 800] ------- [0:0 4:0 29 4] [4 0] 1 0
r 1.111756899 _3_ RTR  --- 5 ack 40 [13a 3 4 800] ------- [4:0 0:0 30 3] [2 0] 1 0
f 1.111756899 _3_ RTR  --- 5 ack 40 [13a 3 4 800] ------- [4:0 0:0 29 0] [2 0] 1 0
r 1.125742554 _4_ AGT  --- 6 tcp 1540 [13a 4 3 800] ------- [0:0 4:0 29 4] [3 0] 2 0
s 1.125742554 _4_ AGT  --- 8 ack 40 [0 0 0 0] ------- [4:0 0:0 32 0] [3 0] 0 0
r 1.125742554 _4_ RTR  --- 8 ack 40 [0 0 0 0] ------- [4:0 0:0 32 0] [3 0] 0 0
s 1.125742554 _4_ RTR  --- 8 ack 40 [0 0 0 0] ------- [4:0 0:0 30 3] [3 0] 0 0
r 1.127688209 _3_ RTR  --- 8 ack 40 [13a 3 4 800] ------- [4:0 0:0 30 3] [3 0] 1 0
f 1.127688209 _3_ RTR  --- 8 ack 40 [13a 3 4 800] ------- [4:0 0:0 29 0] [3 0] 1 0
r 1.141593864 _4_ AGT  --- 7 tcp 1540 [13a 4 3 800] ------- [0:0 4:0 29 4] [4 0] 2 0
s 1.141593864 _4_ AGT  --- 9 ack 40 [0 0 0 0] ------- [4:0 0:0 32 0] [4 0] 0 0
r 1.141593864 _4_ RTR  --- 9 ack 40 [0 0 0 0] ------- [4:0 0:0 32 0] [4 0] 0 0
s 1.141593864 _4_ RTR  --- 9 ack 40 [0 0 0 0] ------- [4:0 0:0 30 3] [4 0] 0 0
r 1.143439519 _3_ RTR  --- 9 ack 40 [13a 3 4 800] ------- [4:0 0:0 30 3] [4 0] 1 0
f 1.143439519 _3_ RTR  --- 9 ack 40 [13a 3 4 800] ------- [4:0 0:0 29 0] [4 0] 1 0
r 1.145764700 _0_ AGT  --- 5 ack 40 [13a 0 3 800] ------- [4:0 0:0 29 0] [2 0] 2 0
s 1.145764700 _0_ AGT  --- 10 tcp 1540 [0 0 0 0] ------- [0:0 4:0 32 0] [5 0] 0 0
r 1.145764700 _0_ RTR  --- 10 tcp 1540 [0 0 0 0] ------- [0:0 4:0 32 0] [5 0] 0 0
s 1.145764700 _0_ AGT  --- 11 tcp 1540 [0 0 0 0] ------- [0:0 4:0 32 0] [6 0] 0 0
r 1.145764700 _0_ RTR  --- 11 tcp 1540 [0 0 0 0] ------- [0:0 4:0 32 0] [6 0] 0 0
s 1.145764700 _0_ RTR  --- 10 tcp 1540 [0 0 0 0] ------- [0:0 4:0 30 3] [5 0] 0 0
s 1.145764700 _0_ RTR  --- 11 tcp 1540 [0 0 0 0] ------- [0:0 4:0 30 3] [6 0] 0 0
r 1.159789880 _3_ RTR  --- 10 tcp 1540 [13a 3 0 800] ------- [0:0 4:0 30 3] [5 0] 1 0
f 1.159789880 _3_ RTR  --- 10 tcp 1540 [13a 3 0 800] ------- [0:0 4:0 29 4] [5 0] 1 0
r 1.173675454 _3_ RTR  --- 11 tcp 1540 [13a 3 0 800] ------- [0:0 4:0 30 3] [6 0] 1 0
f 1.173675454 _3_ RTR  --- 11 tcp 1540 [13a 3 0 800] ------- [0:0 4:0 29 4] [6 0] 1 0
r 1.175840633 _0_ AGT  --- 8 ack 40 [13a 0 3 800] ------- [4:0 0:0 29 0] [3 0] 2 0
s 1.175840633 _0_ AGT  --- 12 tcp 1540 [0 0 0 0] ------- [0:0 4:0 32 0] [7 0] 0 0
r 1.175840633 _0_ RTR  --- 12 tcp 1540 [0 0 0 0] ------- [0:0 4:0 32 0] [7 0] 0 0
s 1.175840633 _0_ AGT  --- 13 tcp 1540 [0 0 0 0] ------- [0:0 4:0 32 0] [8 0] 0 0
r 1.175840633 _0_ RTR  --- 13 tcp 1540 [0 0 0 0] ------- [0:0 4:0 32 0] [8 0] 0 0
s 1.175840633 _0_ RTR  --- 12 tcp 1540 [0 0 0 0] ------- [0:0 4:0 30 3] [7 0] 0 0
s 1.175840633 _0_ RTR  --- 13 tcp 1540 [0 0 0 0] ------- [0:0 4:0 30 3] [8 0] 0 0
r 1.190005813 _3_ RTR  --- 12 tcp 1540 [13a 3 0 800] ------- [0:0 4:0 30 3] [7 0] 1 0
f 1.190005813 _3_ RTR  --- 12 tcp 1540 [13a 3 0 800] ------- [0:0 4:0 29 4] [7 0] 1 0
r 1.192010992 _0_ AGT  --- 9 ack 40 [13a 0 3 800] ------- [4:0 0:0 29 0] [4 0] 2 0
s 1.192010992 _0_ AGT  --- 14 tcp 1540 [0 0 0 0] ------- [0:0 4:0 32 0] [9 0] 0 0
r 1.192010992 _0_ RTR  --- 14 tcp 1540 [0 0 0 0] ------- [0:0 4:0 32 0] [9 0] 0 0
s 1.192010992 _0_ AGT  --- 15 tcp 1540 [0 0 0 0] ------- [0:0 4:0 32 0] [10 0] 0 0
r 1.192010992 _0_ RTR  --- 15 tcp 1540 [0 0 0 0] ------- [0:0 4:0 32 0] [10 0] 0 0
s 1.192010992 _0_ RTR  --- 14 tcp 1540 [0 0 0 0] ------- [0:0 4:0 30 3] [9 0] 0 0
s 1.192010992 _0_ RTR  --- 15 tcp 1540 [0 0 0 0] ------- [0:0 4:0 30 3] [10 0] 0 0
r 1.205956171 _3_ RTR  --- 13 tcp 1540 [13a 3 0 800] ------- [0:0 4:0 30 3] [8 0] 1 0
f 1.205956171 _3_ RTR  --- 13 tcp 1540 [13a 3 0 800] ------- [0:0 4:0 29 4] [8 0] 1 0
r 1.219861827 _4_ AGT  --- 10 tcp 1540 [13a 4 3 800] ------- [0:0 4:0 29 4] [5 0] 2 0
s 1.219861827 _4_ AGT  --- 16 ack 40 [0 0 0 0] ------- [4:0 0:0 32 0] [5 0] 0 0
r 1.219861827 _4_ RTR  --- 16 ack 40 [0 0 0 0] ------- [4:0 0:0 32 0] [5 0] 0 0
s 1.219861827 _4_ RTR  --- 16 ack 40 [0 0 0 0] ------- [4:0 0:0 30 3] [5 0] 0 0
r 1.233688034 _4_ AGT  --- 11 tcp 1540 [13a 4 3 800] ------- [0:0 4:0 29 4] [6 0] 2 0
s 1.233688034 _4_ AGT  --- 17 ack 40 [0 0 0 0] ------- [4:0 0:0 32 0] [6 0] 0 0
r 1.233688034 _4_ RTR  --- 17 ack 40 [0 0 0 0] ------- [4:0 0:0 32 0] [6 0] 0 0
s 1.233688034 _4_ RTR  --- 17 ack 40 [0 0 0 0] ------- [4:0 0:0 30 3] [6 0] 0 0
r 1.247734241 _4_ AGT  --- 12 tcp 1540 [13a 4 3 800] ------- [0:0 4:0 29 4] [7 0] 2 0
s 1.247734241 _4_ AGT  --- 18 ack 40 [0 0 0 0] ------- [4:0 0:0 32 0] [7 0] 0 0
r 1.247734241 _4_ RTR  --- 18 ack 40 [0 0 0 0] ------- [4:0 0:0 32 0] [7 0] 0 0
s 1.247734241 _4_ RTR  --- 18 ack 40 [0 0 0 0] ------- [4:0 0:0 30 3] [7 0] 0 0
r 1.249819897 _3_ RTR  --- 16 ack 40 [13a 3 4 800] ------- [4:0 0:0 30 3] [5 0] 1 0
f 1.249819897 _3_ RTR  --- 16 ack 40 [13a 3 4 800] ------- [4:0 0:0 29 0] [5 0] 1 0
r 1.263705553 _4_ AGT  --- 13 tcp 1540 [13a 4 3 800] ------- [0:0 4:0 29 4] [8 0] 2 0
s 1.263705553 _4_ AGT  --- 19 ack 40 [0 0 0 0] ------- [4:0 0:0 32 0] [8 0] 0 0
r 1.263705553 _4_ RTR  --- 19 ack 40 [0 0 0 0] ------- [4:0 0:0 32 0] [8 0] 0 0
s 1.263705553 _4_ RTR  --- 19 ack 40 [0 0 0 0] ------- [4:0 0:0 30 3] [8 0] 0 0
r 1.265631208 _3_ RTR  --- 17 ack 40 [13a 3 4 800] ------- [4:0 0:0 30 3] [6 0] 1 0
f 1.265631208 _3_ RTR  --- 17 ack 40 [13a 3 4 800] ------- [4:0 0:0 29 0] [6 0] 1 0
r 1.267537416 _3_ RTR  --- 18 ack 40 [13a 3 4 800] ------- [4:0 0:0 30 3] [7 0] 1 0
f 1.267537416 _3_ RTR  --- 18 ack 40 [13a 3 4 800] ------- [4:0 0:0 29 0] [7 0] 1 0
r 1.269402593 _0_ AGT  --- 16 ack 40 [13a 0 3 800] ------- [4:0 0:0 29 0] [5 0] 2 0
s 1.269402593 _0_ AGT  --- 20 tcp 1540 [0 0 0 0] ------- [0:0 4:0 32 0] [11 0] 0 0
r 1.269402593 _0_ RTR  --- 20 tcp 1540 [0 0 0 0] ------- [0:0 4:0 32 0] [11 0] 0 0
s 1.269402593 _0_ AGT  --- 21 tcp 1540 [0 0 0 0] ------- [0:0 4:0 32 0] [12 0] 0 0
r 1.269402593 _0_ RTR  --- 21 tcp 1540 [0 0 0 0] ------- [0:0 4:0 32 0] [12 0] 0 0
s 1.269402593 _0_ RTR  --- 20 tcp 1540 [0 0 0 0] ------- [0:0 4:0 30 3] [11 0] 0 0
s 1.269402593 _0_ RTR  --- 21 tcp 1540 [0 0 0 0] ------- [0:0 4:0 30 3] [12 0] 0 0
r 1.271228162 _0_ AGT  --- 17 ack 40 [13a 0 3 800] ------- [4:0 0:0 29 0] [6 0] 2 0
s 1.271228162 _0_ AGT  --- 22 tcp 1540 [0 0 0 0] ------- [0:0 4:0 32 0] [13 0] 0 0
r 1.271228162 _0_ RTR  --- 22 tcp 1540 [0 0 0 0] ------- [0:0 4:0 32 0] [13 0] 0 0
s 1.271228162 _0_ AGT  --- 23 tcp 1540 [0 0 0 0] ------- [0:0 4:0 32 0] [14 0] 0 0
r 1.271228162 _0_ RTR  --- 23 tcp 1540 [0 0 0 0] ------- [0:0 4:0 32 0] [14 0] 0 0
s 1.271228162 _0_ RTR  --- 22 tcp 1540 [0 0 0 0] ------- [0:0 4:0 30 3] [13 0] 0 0
s 1.271228162 _0_ RTR  --- 23 tcp 1540 [0 0 0 0] ------- [0:0 4:0 30 3] [14 0] 0 0
r 1.285253338 _3_ RTR  --- 14 tcp 1540 [13a 3 0 800] ------- [0:0 4:0 30 3] [9 0] 1 0
f 1.285253338 _3_ RTR  --- 14 tcp 1540 [13a 3 0 800] ------- [0:0 4:0 29 4] [9 0] 1 0
r 1.287138514 _0_ AGT  --- 18 ack 40 [13a 0 3 800] ------- [4:0 0:0 29 0] [7 0] 2 0
s 1.287138514 _0_ AGT  --- 24 tcp 1540 [0 0 0 0] ------- [0:0 4:0 32 0] [15 0] 0 0
r 1.287138514 _0_ RTR  --- 24 tcp 1540 [0 0 0 0] ------- [0:0 4:0 32 0] [15 0] 0 0
s 1.287138514 _0_ AGT  --- 25 tcp 1540 [0 0 0 0] ------- [0:0 4:0 32 0] [16 0] 0 0
r 1.287138514 _0_ RTR  --- 25 tcp 1540 [0 0 0 0] ------- [0:0 4:0 32 0] [16 0] 0 0
s 1.287138514 _0_ RTR  --- 24 tcp 1540 [0 0 0 0] ------- [0:0 4:0 30 3] [15 0] 0 0
s 1.287138514 _0_ RTR  --- 25 tcp 1540 [0 0 0 0] ------- [0:0 4:0 30 3] [16 0] 0 0
r 1.301223691 _3_ RTR  --- 15 tcp 1540 [13a 3 0 800] ------- [0:0 4:0 30 3] [10 0] 1 0
f 1.301223691 _3_ RTR  --- 15 tcp 1540 [13a 3 0 800] ------- [0:0 4:0 29 4] [10 0] 1 0
r 1.315069258 _3_ RTR  --- 20 tcp 1540 [13a 3 0 800] ------- [0:0 4:0 30 3] [11 0] 1 0
f 1.315069258 _3_ RTR  --- 20 tcp 1540 [13a 3 0 800] ------- [0:0 4:0 29 4] [11 0] 1 0
r 1.328914914 _4_ AGT  --- 14 tcp 1540 [13a 4 3 800] ------- [0:0 4:0 29 4] [9 0] 2 0
s 1.328914914 _4_ AGT  --- 26 ack 40 [0 0 0 0] ------- [4:0 0:0 32 0] [9 0] 0 0
r 1.328914914 _4_ RTR  --- 26 ack 40 [0 0 0 0] ------- [4:0 0:0 32 0] [9 0] 0 0
s 1.328914914 _4_ RTR  --- 26 ack 40 [0 0 0 0] ------- [4:0 0:0 30 3] [9 0] 0 0
r 1.342981122 _4_ AGT  --- 15 tcp 1540 [13a 4 3 800] ------- [0:0 4:0 29 4] [10 0] 2 0
s 1.342981122 _4_ AGT  --- 27 ack 40 [0 0 0 0] ------- [4:0 0:0 32 0] [10 0] 0 0
r 1.342981122 _4_ RTR  --- 27 ack 40 [0 0 0 0] ------- [4:0 0:0 32 0] [10 0] 0 0
s 1.342981122 _4_ RTR  --- 27 ack 40 [0 0 0 0] ------- [4:0 0:0 30 3] [10 0] 0 0
r 1.344826778 _3_ RTR  --- 19 ack 40 [13a 3 4 800] ------- [4:0 0:0 30 3] [8 0] 1 0
f 1.344826778 _3_ RTR  --- 19 ack 40 [13a 3 4 800] ------- [4:0 0:0 29 0] [8 0] 1 0
r 1.358752435 _4_ AGT  --- 20 tcp 1540 [13a 4 3 800] ------- [0:0 4:0 29 4] [11 0] 2 0
s 1.358752435 _4_ AGT  --- 28 ack 40 [0 0 0 0] ------- [4:0 0:0 32 0] [11 0] 0 0
r 1.358752435 _4_ RTR  --- 28 ack 40 [0 0 0 0] ------- [4:0 0:0 32 0] [11 0] 0 0
s 1.358752435 _4_ RTR  --- 28 ack 40 [0 0 0 0] ------- [4:0 0:0 30 3] [11 0] 0 0
r 1.360618161 _0_ AGT  --- 19 ack 40 [13a 0 3 800] ------- [4:0 0:0 29 0] [8 0] 2 0
s 1.360618161 _0_ AGT  --- 29 tcp 1540 [0 0 0 0] ------- [0:0 4:0 32 0] [17 0] 0 0
r 1.360618161 _0_ RTR  --- 29 tcp 1540 [0 0 0 0] ------- [0:0 4:0 32 0] [17 0] 0 0
s 1.360618161 _0_ AGT  --- 30 tcp 1540 [0 0 0 0] ------- [0:0 4:0 32 0] [18 0] 0 0
r 1.360618161 _0_ RTR  --- 30 tcp 1540 [0 0 0 0] ------- [0:0 4:0 32 0] [18 0] 0 0
s 1.360618161 _0_ RTR  --- 29 tcp 1540 [0 0 0 0] ------- [0:0 4:0 30 3] [17 0] 0 0
s 1.360618161 _0_ RTR  --- 30 tcp 1540 [0 0 0 0] ------- [0:0 4:0 30 3] [18 0] 0 0
r 1.374883334 _3_ RTR  --- 21 tcp 1540 [13a 3 0 800] ------- [0:0 4:0 30 3] [12 0] 1 0
f 1.374883334 _3_ RTR  --- 21 tcp 1540 [13a 3 0 800] ------- [0:0 4:0 29 4] [12 0] 1 0
r 1.388748991 _4_ AGT  --- 21 tcp 1540 [13a 4 3 800] ------- [0:0 4:0 29 4] [12 0] 2 0
s 1.388748991 _4_ AGT  --- 31 ack 40 [0 0 0 0] ------- [4:0 0:0 32 0] [12 0] 0 0
r 1.388748991 _4_ RTR  --- 31 ack 40 [0 0 0 0] ------- [4:0 0:0 32 0] [12 0] 0 0
s 1.388748991 _4_ RTR  --- 31 ack 40 [0 0 0 0] ------- [4:0 0:0 30 3] [12 0] 0 0
r 1.390674647 _3_ RTR  --- 26 ack 40 [13a 3 4 800] ------- [4:0 0:0 30 3] [9 0] 1 0
f 1.390674647 _3_ RTR  --- 26 ack 40 [13a 3 4 800] ------- [4:0 0:0 29 0] [9 0] 1 0
r 1.405427314 _3_ RTR  --- 22 tcp 1540 [13a 3 0 800] ------- [0:0 4:0 30 3] [13 0] 1 0
f 1.405427314 _3_ RTR  --- 22 tcp 1540 [13a 3 0 800] ------- [0:0 4:0 29 4] [13 0] 1 0
r 1.407323520 _3_ RTR  --- 27 ack 40 [13a 3 4 800] ------- [4:0 0:0 30 3] [10 0] 1 0
f 1.407323520 _3_ RTR  --- 27 ack 40 [13a 3 4 800] ------- [4:0 0:0 29 0] [10 0] 1 0
r 1.409209729 _3_ RTR  --- 28 ack 40 [13a 3 4 800] ------- [4:0 0:0 30 3] [11 0] 1 0
f 1.409209729 _3_ RTR  --- 28 ack 40 [13a 3 4 800] ------- [4:0 0:0 29 0] [11 0] 1 0
r 1.423225291 _3_ RTR  --- 23 tcp 1540 [13a 3 0 800] ------- [0:0 4:0 30 3] [14 0] 1 0
f 1.423225291 _3_ RTR  --- 23 tcp 1540 [13a 3 0 800] ------- [0:0 4:0 29 4] [14 0] 1 0
r 1.425261498 _3_ RTR  --- 31 ack 40 [13a 3 4 800] ------- [4:0 0:0 30 3] [12 0] 1 0
f 1.425261498 _3_ RTR  --- 31 ack 40 [13a 3 4 800] ------- [4:0 0:0 29 0] [12 0] 1 0
r 1.427246670 _0_ AGT  --- 26 ack 40 [13a 0 3 800] ------- [4:0 0:0 29 0] [9 0] 2 0
s 1.427246670 _0_ AGT  --- 32 tcp 1540 [0 0 0 0] ------- [0:0 4:0 32 0] [19 0] 0 0
r 1.427246670 _0_ RTR  --- 32 tcp 1540 [0 0 0 0] ------- [0:0 4:0 32 0] [19 0] 0 0
s 1.427246670 _0_ AGT  --- 33 tcp 1540 [0 0 0 0] ------- [0:0 4:0 32 0] [20 0] 0 0
r 1.427246670 _0_ RTR  --- 33 tcp 1540 [0 0 0 0] ------- [0:0 4:0 32 0] [20 0] 0 0
s 1.427246670 _0_ RTR  --- 32 tcp 1540 [0 0 0 0] ------- [0:0 4:0 30 3] [19 0] 0 0
s 1.427246670 _0_ RTR  --- 33 tcp 1540 [0 0 0 0] ------- [0:0 4:0 30 3] [20 0] 0 0
r 1.441132717 _4_ AGT  --- 22 tcp 1540 [13a 4 3 800] ------- [0:0 4:0 29 4] [13 0] 2 0
s 1.441132717 _4_ AGT  --- 34 ack 40 [0 0 0 0] ------- [4:0 0:0 32 0] [13 0] 0 0
r 1.441132717 _4_ RTR  --- 34 ack 40 [0 0 0 0] ------- [4:0 0:0 32 0] [13 0] 0 0
s 1.441132717 _4_ RTR  --- 34 ack 40 [0 0 0 0] ------- [4:0 0:0 30 3] [13 0] 0 0
r 1.443078440 _0_ AGT  --- 27 ack 40 [13a 0 3 800] ------- [4:0 0:0 29 0] [10 0] 2 0
s 1.443078440 _0_ AGT  --- 35 tcp 1540 [0 0 0 0] ------- [0:0 4:0 32 0] [21 0] 0 0
r 1.443078440 _0_ RTR  --- 35 tcp 1540 [0 0 0 0] ------- [0:0 4:0 32 0] [21 0] 0 0
s 1.443078440 _0_ AGT  --- 36 tcp 1540 [0 0 0 0] ------- [0:0 4:0 32 0] [22 0] 0 0
r 1.443078440 _0_ RTR  --- 36 tcp 1540 [0 0 0 0] ------- [0:0 4:0 32 0] [22 0] 0 0
s 1.443078440 _0_ RTR  --- 35 tcp 1540 [0 0 0 0] ------- [0:0 4:0 30 3] [21 0] 0 0
s 1.443078440 _0_ RTR  --- 36 tcp 1540 [0 0 0 0] ------- [0:0 4:0 30 3] [22 0] 0 0
r 1.457143612 _3_ RTR  --- 24 tcp 1540 [13a 3 0 800] ------- [0:0 4:0 30 3] [15 0] 1 0
f 1.457143612 _3_ RTR  --- 24 tcp 1540 [13a 3 0 800] ------- [0:0 4:0 29 4] [15 0] 1 0
r 1.459348783 _0_ AGT  --- 28 ack 40 [13a 0 3 800] ------- [4:0 0:0 29 0] [11 0] 2 0
s 1.459348783 _0_ AGT  --- 37 tcp 1540 [0 0 0 0] ------- [0:0 4:0 32 0] [23 0] 0 0
r 1.459348783 _0_ RTR  --- 37 tcp 1540 [0 0 0 0] ------- [0:0 4:0 32 0] [23 0] 0 0
s 1.459348783 _0_ AGT  --- 38 tcp 1540 [0 0 0 0] ------- [0:0 4:0 32 0] [24 0] 0 0
r 1.459348783 _0_ RTR  --- 38 tcp 1540 [0 0 0 0] ------- [0:0 4:0 32 0] [24 0] 0 0
s 1.459348783 _0_ RTR  --- 37 tcp 1540 [0 0 0 0] ------- [0:0 4:0 30 3] [23 0] 0 0
s 1.459348783 _0_ RTR  --- 38 tcp 1540 [0 0 0 0] ------- [0:0 4:0 30 3] [24 0] 0 0
r 1.473253954 _3_ RTR  --- 25 tcp 1540 [13a 3 0 800] ------- [0:0 4:0 30 3] [16 0] 1 0
f 1.473253954 _3_ RTR  --- 25 tcp 1540 [13a 3 0 800] ------- [0:0 4:0 29 4] [16 0] 1 0
r 1.475270161 _3_ RTR  --- 34 ack 40 [13a 3 4 800] ------- [4:0 0:0 30 3] [13 0] 1 0
f 1.475270161 _3_ RTR  --- 34 ack 40 [13a 3 4 800] ------- [4:0 0:0 29 0] [13 0] 1 0
r 1.489265720 _3_ RTR  --- 29 tcp 1540 [13a 3 0 800] ------- [0:0 4:0 30 3] [17 0] 1 0
f 1.489265720 _3_ RTR  --- 29 tcp 1540 [13a 3 0 800] ------- [0:0 4:0 29 4] [17 0] 1 0
r 1.503231377 _4_ AGT  --- 23 tcp 1540 [13a 4 3 800] ------- [0:0 4:0 29 4] [14 0] 2 0
s 1.503231377 _4_ AGT  --- 39 ack 40 [0 0 0 0] ------- [4:0 0:0 32 0] [14 0] 0 0
r 1.503231377 _4_ RTR  --- 39 ack 40 [0 0 0 0] ------- [4:0 0:0 32 0] [14 0] 0 0
s 1.503231377 _4_ RTR  --- 39 ack 40 [0 0 0 0] ------- [4:0 0:0 30 3] [14 0] 0 0
r 1.505117034 _3_ RTR  --- 39 ack 40 [13a 3 4 800] ------- [4:0 0:0 30 3] [14 0] 1 0
f 1.505117034 _3_ RTR  --- 39 ack 40 [13a 3 4 800] ------- [4:0 0:0 29 0] [14 0] 1 0
r 1.519172592 _3_ RTR  --- 30 tcp 1540 [13a 3 0 800] ------- [0:0 4:0 30 3] [18 0] 1 0
f 1.519172592 _3_ RTR  --- 30 tcp 1540 [13a 3 0 800] ------- [0:0 4:0 29 4] [18 0] 1 0
r 1.521057761 _0_ AGT  --- 31 ack 40 [13a 0 3 800] ------- [4:0 0:0 29 0] [12 0] 2 0
s 1.521057761 _0_ AGT  --- 40 tcp 1540 [0 0 0 0] ------- [0:0 4:0 32 0] [25 0] 0 0
r 1.521057761 _0_ RTR  --- 40 tcp 1540 [0 0 0 0] ------- [0:0 4:0 32 0] [25 0] 0 0
s 1.521057761 _0_ AGT  --- 41 tcp 1540 [0 0 0 0] ------- [0:0 4:0 32 0] [26 0] 0 0
r 1.521057761 _0_ RTR  --- 41 tcp 1540 [0 0 0 0] ------- [0:0 4:0 32 0] [26 0] 0 0
s 1.521057761 _0_ RTR  --- 40 tcp 1540 [0 0 0 0] ------- [0:0 4:0 30 3] [25 0] 0 0
s 1.521057761 _0_ RTR  --- 41 tcp 1540 [0 0 0 0] ------- [0:0 4:0 30 3] [26 0] 0 0
r 1.535103807 _4_ AGT  --- 24 tcp 1540 [13a 4 3 800] ------- [0:0 4:0 29 4] [15 0] 2 0
s 1.535103807 _4_ AGT  --- 42 ack 40 [0 0 0 0] ------- [4:0 0:0 32 0] [15 0] 0 0
r 1.535103807 _4_ RTR  --- 42 ack 40 [0 0 0 0] ------- [4:0 0:0 32 0] [15 0] 0 0
s 1.535103807 _4_ RTR  --- 42 ack 40 [0 0 0 0] ------- [4:0 0:0 30 3] [15 0] 0 0
r 1.549090017 _4_ AGT  --- 25 tcp 1540 [13a 4 3 800] ------- [0:0 4:0 29 4] [16 0] 2 0
s 1.549090017 _4_ AGT  --- 43 ack 40 [0 0 0 0] ------- [4:0 0:0 32 0] [16 0] 0 0
r 1.549090017 _4_ RTR  --- 43 ack 40 [0 0 0 0] ------- [4:0 0:0 32 0] [16 0] 0 0
s 1.549090017 _4_ RTR  --- 43 ack 40 [0 0 0 0] ------- [4:0 0:0 30 3] [16 0] 0 0
r 1.550935674 _3_ RTR  --- 42 ack 40 [13a 3 4 800] ------- [4:0 0:0 30 3] [15 0] 1 0
f 1.550935674 _3_ RTR  --- 42 ack 40 [13a 3 4 800] ------- [4:0 0:0 29 0] [15 0] 1 0
r 1.565131230 _3_ RTR  --- 32 tcp 1540 [13a 3 0 800] ------- [0:0 4:0 30 3] [19 0] 1 0
f 1.565131230 _3_ RTR  --- 32 tcp 1540 [13a 3 0 800] ------- [0:0 4:0 29 4] [19 0] 1 0
r 1.567016398 _0_ AGT  --- 34 ack 40 [13a 0 3 800] ------- [4:0 0:0 29 0] [13 0] 2 0
s 1.567016398 _0_ AGT  --- 44 tcp 1540 [0 0 0 0] ------- [0:0 4:0 32 0] [27 0] 0 0
r 1.567016398 _0_ RTR  --- 44 tcp 1540 [0 0 0 0] ------- [0:0 4:0 32 0] [27 0] 0 0
s 1.567016398 _0_ AGT  --- 45 tcp 1540 [0 0 0 0] ------- [0:0 4:0 32 0] [28 0] 0 0
r 1.567016398 _0_ RTR  --- 45 tcp 1540 [0 0 0 0] ------- [0:0 4:0 32 0] [28 0] 0 0
s 1.567016398 _0_ RTR  --- 44 tcp 1540 [0 0 0 0] ------- [0:0 4:0 30 3] [27 0] 0 0
s 1.567016398 _0_ RTR  --- 45 tcp 1540 [0 0 0 0] ------- [0:0 4:0 30 3] [28 0] 0 0
r 1.580921565 _3_ RTR  --- 33 tcp 1540 [13a 3 0 800] ------- [0:0 4:0 30 3] [20 0] 1 0
f 1.580921565 _3_ RTR  --- 33 tcp 1540 [13a 3 0 800] ------- [0:0 4:0 29 4] [20 0] 1 0
r 1.582837774 _3_ RTR  --- 43 ack 40 [13a 3 4 800] ------- [4:0 0:0 30 3] [16 0] 1 0
f 1.582837774 _3_ RTR  --- 43 ack 40 [13a 3 4 800] ------- [4:0 0:0 29 0] [16 0] 1 0
r 1.596683431 _4_ AGT  --- 29 tcp 1540 [13a 4 3 800] ------- [0:0 4:0 29 4] [17 0] 2 0
s 1.596683431 _4_ AGT  --- 46 ack 40 [0 0 0 0] ------- [4:0 0:0 32 0] [17 0] 0 0
r 1.596683431 _4_ RTR  --- 46 ack 40 [0 0 0 0] ------- [4:0 0:0 32 0] [17 0] 0 0
s 1.596683431 _4_ RTR  --- 46 ack 40 [0 0 0 0] ------- [4:0 0:0 30 3] [17 0] 0 0
r 1.598649089 _3_ RTR  --- 46 ack 40 [13a 3 4 800] ------- [4:0 0:0 30 3] [17 0] 1 0
f 1.598649089 _3_ RTR  --- 46 ack 40 [13a 3 4 800] ------- [4:0 0:0 29 0] [17 0] 1 0
r 1.612664643 _3_ RTR  --- 35 tcp 1540 [13a 3 0 800] ------- [0:0 4:0 30 3] [21 0] 1 0
f 1.612664643 _3_ RTR  --- 35 tcp 1540 [13a 3 0 800] ------- [0:0 4:0 29 4] [21 0] 1 0
r 1.614529809 _0_ AGT  --- 39 ack 40 [13a 0 3 800] ------- [4:0 0:0 29 0] [14 0] 2 0
s 1.614529809 _0_ AGT  --- 47 tcp 1540 [0 0 0 0] ------- [0:0 4:0 32 0] [29 0] 0 0
r 1.614529809 _0_ RTR  --- 47 tcp 1540 [0 0 0 0] ------- [0:0 4:0 32 0] [29 0] 0 0
s 1.614529809 _0_ AGT  --- 48 tcp 1540 [0 0 0 0] ------- [0:0 4:0 32 0] [30 0] 0 0
r 1.614529809 _0_ RTR  --- 48 tcp 1540 [0 0 0 0] ------- [0:0 4:0 32 0] [30 0] 0 0
s 1.614529809 _0_ RTR  --- 47 tcp 1540 [0 0 0 0] ------- [0:0 4:0 30 3] [29 0] 0 0
s 1.614529809 _0_ RTR  --- 48 tcp 1540 [0 0 0 0] ------- [0:0 4:0 30 3] [30 0] 0 0
r 1.628754975 _3_ RTR  --- 36 tcp 1540 [13a 3 0 800] ------- [0:0 4:0 30 3] [22 0] 1 0
f 1.628754975 _3_ RTR  --- 36 tcp 1540 [13a 3 0 800] ------- [0:0 4:0 29 4] [22 0] 1 0
r 1.642700633 _4_ AGT  --- 30 tcp 1540 [13a 4 3 800] ------- [0:0 4:0 29 4] [18 0] 2 0
s 1.642700633 _4_ AGT  --- 49 ack 40 [0 0 0 0] ------- [4:0 0:0 32 0] [18 0] 0 0
r 1.642700633 _4_ RTR  --- 49 ack 40 [0 0 0 0] ------- [4:0 0:0 32 0] [18 0] 0 0
s 1.642700633 _4_ RTR  --- 49 ack 40 [0 0 0 0] ------- [4:0 0:0 30 3] [18 0] 0 0
r 1.644586290 _3_ RTR  --- 49 ack 40 [13a 3 4 800] ------- [4:0 0:0 30 3] [18 0] 1 0
f 1.644586290 _3_ RTR  --- 49 ack 40 [13a 3 4 800] ------- [4:0 0:0 29 0] [18 0] 1 0
r 1.646511456 _0_ AGT  --- 42 ack 40 [13a 0 3 800] ------- [4:0 0:0 29 0] [15 0] 2 0
s 1.646511456 _0_ AGT  --- 50 tcp 1540 [0 0 0 0] ------- [0:0 4:0 32 0] [31 0] 0 0
r 1.646511456 _0_ RTR  --- 50 tcp 1540 [0 0 0 0] ------- [0:0 4:0 32 0] [31 0] 0 0
s 1.646511456 _0_ AGT  --- 51 tcp 1540 [0 0 0 0] ------- [0:0 4:0 32 0] [32 0] 0 0
r 1.646511456 _0_ RTR  --- 51 tcp 1540 [0 0 0 0] ------- [0:0 4:0 32 0] [32 0] 0 0
s 1.646511456 _0_ RTR  --- 50 tcp 1540 [0 0 0 0] ------- [0:0 4:0 30 3] [31 0] 0 0
s 1.646511456 _0_ RTR  --- 51 tcp 1540 [0 0 0 0] ------- [0:0 4:0 30 3] [32 0] 0 0
r 1.660516621 _3_ RTR  --- 37 tcp 1540 [13a 3 0 800] ------- [0:0 4:0 30 3] [23 0] 1 0
f 1.660516621 _3_ RTR  --- 37 tcp 1540 [13a 3 0 800] ------- [0:0 4:0 29 4] [23 0] 1 0
r 1.674442279 _4_ AGT  --- 32 tcp 1540 [13a 4 3 800] ------- [0:0 4:0 29 4] [19 0] 2 0
s 1.674442279 _4_ AGT  --- 52 ack 40 [0 0 0 0] ------- [4:0 0:0 32 0] [19 0] 0 0
r 1.674442279 _4_ RTR  --- 52 ack 40 [0 0 0 0] ------- [4:0 0:0 32 0] [19 0] 0 0
s 1.674442279 _4_ RTR  --- 52 ack 40 [0 0 0 0] ------- [4:0 0:0 30 3] [19 0] 0 0
r 1.676267937 _3_ RTR  --- 52 ack 40 [13a 3 4 800] ------- [4:0 0:0 30 3] [19 0] 1 0
f 1.676267937 _3_ RTR  --- 52 ack 40 [13a 3 4 800] ------- [4:0 0:0 29 0] [19 0] 1 0
r 1.690153595 _4_ AGT  --- 33 tcp 1540 [13a 4 3 800] ------- [0:0 4:0 29 4] [20 0] 2 0
s 1.690153595 _4_ AGT  --- 53 ack 40 [0 0 0 0] ------- [4:0 0:0 32 0] [20 0] 0 0
r 1.690153595 _4_ RTR  --- 53 ack 40 [0 0 0 0] ------- [4:0 0:0 32 0] [20 0] 0 0
s 1.690153595 _4_ RTR  --- 53 ack 40 [0 0 0 0] ------- [4:0 0:0 30 3] [20 0] 0 0
r 1.704363698 _3_ RTR  --- 38 tcp 1540 [13a 3 0 800] ------- [0:0 4:0 30 3] [24 0] 1 0
f 1.704363698 _3_ RTR  --- 38 tcp 1540 [13a 3 0 800] ------- [0:0 4:0 29 4] [24 0] 1 0
r 1.706319907 _3_ RTR  --- 53 ack 40 [13a 3 4 800] ------- [4:0 0:0 30 3] [20 0] 1 0
f 1.706319907 _3_ RTR  --- 53 ack 40 [13a 3 4 800] ------- [4:0 0:0 29 0] [20 0] 1 0
r 1.708245071 _0_ AGT  --- 43 ack 40 [13a 0 3 800] ------- [4:0 0:0 29 0] [16 0] 2 0
s 1.708245071 _0_ AGT  --- 54 tcp 1540 [0 0 0 0] ------- [0:0 4:0 32 0] [33 0] 0 0
r 1.708245071 _0_ RTR  --- 54 tcp 1540 [0 0 0 0] ------- [0:0 4:0 32 0] [33 0] 0 0
s 1.708245071 _0_ AGT  --- 55 tcp 1540 [0 0 0 0] ------- [0:0 4:0 32 0] [34 0] 0 0
r 1.708245071 _0_ RTR  --- 55 tcp 1540 [0 0 0 0] ------- [0:0 4:0 32 0] [34 0] 0 0
s 1.708245071 _0_ RTR  --- 54 tcp 1540 [0 0 0 0] ------- [0:0 4:0 30 3] [33 0] 0 0
s 1.708245071 _0_ RTR  --- 55 tcp 1540 [0 0 0 0] ------- [0:0 4:0 30 3] [34 0] 0 0
r 1.710090622 _0_ AGT  --- 46 ack 40 [13a 0 3 800] ------- [4:0 0:0 29 0] [17 0] 2 0
s 1.710090622 _0_ AGT  --- 56 tcp 1540 [0 0 0 0] ------- [0:0 4:0 32 0] [35 0] 0 0
r 1.710090622 _0_ RTR  --- 56 tcp 1540 [0 0 0 0] ------- [0:0 4:0 32 0] [35 0] 0 0
s 1.710090622 _0_ AGT  --- 57 tcp 1540 [0 0 0 0] ------- [0:0 4:0 32 0] [36 0] 0 0
r 1.710090622 _0_ RTR  --- 57 tcp 1540 [0 0 0 0] ------- [0:0 4:0 32 0] [36 0] 0 0
s 1.710090622 _0_ RTR  --- 56 tcp 1540 [0 0 0 0] ------- [0:0 4:0 30 3] [35 0] 0 0
s 1.710090622 _0_ RTR  --- 57 tcp 1540 [0 0 0 0] ------- [0:0 4:0 30 3] [36 0] 0 0
r 1.723976667 _4_ AGT  --- 35 tcp 1540 [13a 4 3 800] ------- [0:0 4:0 29 4] [21 0] 2 0
s 1.723976667 _4_ AGT  --- 58 ack 40 [0 0 0 0] ------- [4:0 0:0 32 0] [21 0] 0 0
r 1.723976667 _4_ RTR  --- 58 ack 40 [0 0 0 0] ------- [4:0 0:0 32 0] [21 0] 0 0
s 1.723976667 _4_ RTR  --- 58 ack 40 [0 0 0 0] ------- [4:0 0:0 30 3] [21 0] 0 0
r 1.737822878 _4_ AGT  --- 36 tcp 1540 [13a 4 3 800] ------- [0:0 4:0 29 4] [22 0] 2 0
s 1.737822878 _4_ AGT  --- 59 ack 40 [0 0 0 0] ------- [4:0 0:0 32 0] [22 0] 0 0
r 1.737822878 _4_ RTR  --- 59 ack 40 [0 0 0 0] ------- [4:0 0:0 32 0] [22 0] 0 0
s 1.737822878 _4_ RTR  --- 59 ack 40 [0 0 0 0] ------- [4:0 0:0 30 3] [22 0] 0 0
r 1.739668594 _0_ AGT  --- 49 ack 40 [13a 0 3 800] ------- [4:0 0:0 29 0] [18 0] 2 0
s 1.739668594 _0_ AGT  --- 60 tcp 1540 [0 0 0 0] ------- [0:0 4:0 32 0] [37 0] 0 0
r 1.739668594 _0_ RTR  --- 60 tcp 1540 [0 0 0 0] ------- [0:0 4:0 32 0] [37 0] 0 0
s 1.739668594 _0_ AGT  --- 61 tcp 1540 [0 0 0 0] ------- [0:0 4:0 32 0] [38 0] 0 0
r 1.739668594 _0_ RTR  --- 61 tcp 1540 [0 0 0 0] ------- [0:0 4:0 32 0] [38 0] 0 0
s 1.739668594 _0_ RTR  --- 60 tcp 1540 [0 0 0 0] ------- [0:0 4:0 30 3] [37 0] 0 0
s 1.739668594 _0_ RTR  --- 61 tcp 1540 [0 0 0 0] ------- [0:0 4:0 30 3] [38 0] 0 0
r 1.753673756 _3_ RTR  --- 40 tcp 1540 [13a 3 0 800] ------- [0:0 4:0 30 3] [25 0] 1 0
f 1.753673756 _3_ RTR  --- 40 tcp 1540 [13a 3 0 800] ------- [0:0 4:0 29 4] [25 0] 1 0
r 1.767719414 _4_ AGT  --- 37 tcp 1540 [13a 4 3 800] ------- [0:0 4:0 29 4] [23 0] 2 0
s 1.767719414 _4_ AGT  --- 62 ack 40 [0 0 0 0] ------- [4:0 0:0 32 0] [23 0] 0 0
r 1.767719414 _4_ RTR  --- 62 ack 40 [0 0 0 0] ------- [4:0 0:0 32 0] [23 0] 0 0
s 1.767719414 _4_ RTR  --- 62 ack 40 [0 0 0 0] ------- [4:0 0:0 30 3] [23 0] 0 0
r 1.769605073 _3_ RTR  --- 58 ack 40 [13a 3 4 800] ------- [4:0 0:0 30 3] [21 0] 1 0
f 1.769605073 _3_ RTR  --- 58 ack 40 [13a 3 4 800] ------- [4:0 0:0 29 0] [21 0] 1 0
r 1.783720620 _3_ RTR  --- 41 tcp 1540 [13a 3 0 800] ------- [0:0 4:0 30 3] [26 0] 1 0
f 1.783720620 _3_ RTR  --- 41 tcp 1540 [13a 3 0 800] ------- [0:0 4:0 29 4] [26 0] 1 0
r 1.785585781 _0_ AGT  --- 52 ack 40 [13a 0 3 800] ------- [4:0 0:0 29 0] [19 0] 2 0
s 1.785585781 _0_ AGT  --- 63 tcp 1540 [0 0 0 0] ------- [0:0 4:0 32 0] [39 0] 0 0
r 1.785585781 _0_ RTR  --- 63 tcp 1540 [0 0 0 0] ------- [0:0 4:0 32 0] [39 0] 0 0
s 1.785585781 _0_ RTR  --- 63 tcp 1540 [0 0 0 0] ------- [0:0 4:0 30 3] [39 0] 0 0
r 1.799591827 _4_ AGT  --- 38 tcp 1540 [13a 4 3 800] ------- [0:0 4:0 29 4] [24 0] 2 0
s 1.799591827 _4_ AGT  --- 64 ack 40 [0 0 0 0] ------- [4:0 0:0 32 0] [24 0] 0 0
r 1.799591827 _4_ RTR  --- 64 ack 40 [0 0 0 0] ------- [4:0 0:0 32 0] [24 0] 0 0
s 1.799591827 _4_ RTR  --- 64 ack 40 [0 0 0 0] ------- [4:0 0:0 30 3] [24 0] 0 0
r 1.801617485 _3_ RTR  --- 59 ack 40 [13a 3 4 800] ------- [4:0 0:0 30 3] [22 0] 1 0
f 1.801617485 _3_ RTR  --- 59 ack 40 [13a 3 4 800] ------- [4:0 0:0 29 0] [22 0] 1 0
r 1.815613031 _3_ RTR  --- 44 tcp 1540 [13a 3 0 800] ------- [0:0 4:0 30 3] [27 0] 1 0
f 1.815613031 _3_ RTR  --- 44 tcp 1540 [13a 3 0 800] ------- [0:0 4:0 29 4] [27 0] 1 0
r 1.817509242 _3_ RTR  --- 62 ack 40 [13a 3 4 800] ------- [4:0 0:0 30 3] [23 0] 1 0
f 1.817509242 _3_ RTR  --- 62 ack 40 [13a 3 4 800] ------- [4:0 0:0 29 0] [23 0] 1 0