n -t * -s 0  -x 790 -y 591 -Z 0 -z 25  -v circle -c black
n -t * -s 1  -x 579 -y 238 -Z 0 -z 25  -v circle -c black
n -t * -s 2  -x 75 -y 973 -Z 0 -z 25  -v circle -c black
n -t * -s 3  -x 779 -y 473 -Z 0 -z 25  -v circle -c black
n -t * -s 4  -x 741 -y 312 -Z 0 -z 25  -v circle -c black
V -t * -v 1.0a5 -a 0
W -t * -x 1000 -y 1000
A -t * -n 1 -p 0 -o 0x7fffffff -c 30 -a 1
A -t * -h 1 -m 1073741823 -s 0
n -t 1.000000 -s 0 -x 790.000000 -y 591.000000 -U -2.916980 -V 0.700876 -T 149.812475
n -t 1.000000 -s 1 -x 579.000000 -y 238.000000 -U -6.948967 -V 5.719428 -T 72.384860
n -t 1.000000 -s 2 -x 75.000000 -y 973.000000 -U -1.017315 -V -7.935053 -T 58.978810
n -t 1.000000 -s 3 -x 779.000000 -y 473.000000 -U -6.802578 -V 4.210099 -T 93.346967
n -t 1.000000 -s 4 -x 741.000000 -y 312.000000 -U -6.077702 -V 3.472973 -T 85.229582
+ -t 1.000000000 -s 0 -d -1 -p tcp -e 40 -c 2 -a 0 -i 0 -k AGT 
- -t 1.000000000 -s 0 -d -1 -p tcp -e 40 -c 2 -a 0 -i 0 -k AGT
h -t 1.000000000 -s 0 -d -1 -p tcp -e 40 -c 2 -a 0 -i 0 -k AGT
+ -t 1.000000000 -s 0 -d -1 -p AODV -e 48 -c 2 -a 0 -i 0 -k RTR 
- -t 1.000000000 -s 0 -d -1 -p AODV -e 48 -c 2 -a 0 -i 0 -k RTR
h -t 1.000000000 -s 0 -d -1 -p AODV -e 48 -c 2 -a 0 -i 0 -k RTR
r -t 1.000988395 -s 3 -d -1 -p AODV -e 48 -c 2 -a 0 -i 0 -k RTR
+ -t 1.001869622 -s 3 -d -1 -p AODV -e 48 -c 2 -a 0 -i 0 -k RTR 
- -t 1.001869622 -s 3 -d -1 -p AODV -e 48 -c 2 -a 0 -i 0 -k RTR
h -t 1.001869622 -s 3 -d -1 -p AODV -e 48 -c 2 -a 0 -i 0 -k RTR
r -t 1.003138017 -s 0 -d -1 -p AODV -e 48 -c 2 -a 0 -i 0 -k RTR
r -t 1.003138173 -s 4 -d -1 -p AODV -e 48 -c 2 -a 0 -i 0 -k RTR
+ -t 1.003138173 -s 4 -d 3 -p AODV -e 44 -c 2 -a 0 -i 0 -k RTR 
- -t 1.003138173 -s 4 -d 3 -p AODV -e 44 -c 2 -a 0 -i 0 -k RTR
h -t 1.003138173 -s 4 -d 3 -p AODV -e 44 -c 2 -a 0 -i 0 -k RTR
+ -t 1.007945033 -s 3 -d 0 -p AODV -e 44 -c 2 -a 0 -i 0 -k RTR 
- -t 1.007945033 -s 3 -d 0 -p AODV -e 44 -c 2 -a 0 -i 0 -k RTR
h -t 1.007945033 -s 3 -d 0 -p AODV -e 44 -c 2 -a 0 -i 0 -k RTR
+ -t 1.013054798 -s 0 -d 3 -p tcp -e 40 -c 2 -a 0 -i 0 -k RTR 
- -t 1.013054798 -s 0 -d 3 -p tcp -e 40 -c 2 -a 0 -i 0 -k RTR
h -t 1.013054798 -s 0 -d 3 -p tcp -e 40 -c 2 -a 0 -i 0 -k RTR
+ -t 1.015119982 -s 3 -d 4 -p tcp -e 40 -c 2 -a 0 -i 0 -k RTR 
- -t 1.015119982 -s 3 -d 4 -p tcp -e 40 -c 2 -a 0 -i 0 -k RTR
h -t 1.015119982 -s 3 -d 4 -p tcp -e 40 -c 2 -a 0 -i 0 -k RTR
r -t 1.017425637 -s 4 -d 4 -p tcp -e 40 -c 2 -a 0 -i 0 -k AGT
+ -t 1.017425637 -s 4 -d -1 -p ack -e 40 -c 2 -a 0 -i 1 -k AGT 
- -t 1.017425637 -s 4 -d -1 -p ack -e 40 -c 2 -a 0 -i 1 -k AGT
h -t 1.017425637 -s 4 -d -1 -p ack -e 40 -c 2 -a 0 -i 1 -k AGT
+ -t 1.017425637 -s 4 -d 3 -p ack -e 40 -c 2 -a 0 -i 1 -k RTR 
- -t 1.017425637 -s 4 -d 3 -p ack -e 40 -c 2 -a 0 -i 1 -k RTR
h -t 1.017425637 -s 4 -d 3 -p ack -e 40 -c 2 -a 0 -i 1 -k RTR
+ -t 1.019571291 -s 3 -d 0 -p ack -e 40 -c 2 -a 0 -i 1 -k RTR 
- -t 1.019571291 -s 3 -d 0 -p ack -e 40 -c 2 -a 0 -i 1 -k RTR
h -t 1.019571291 -s 3 -d 0 -p ack -e 40 -c 2 -a 0 -i 1 -k RTR
r -t 1.021616475 -s 0 -d 0 -p ack -e 40 -c 2 -a 0 -i 1 -k AGT
+ -t 1.021616475 -s 0 -d -1 -p tcp -e 1540 -c 2 -a 0 -i 2 -k AGT 
- -t 1.021616475 -s 0 -d -1 -p tcp -e 1540 -c 2 -a 0 -i 2 -k AGT
h -t 1.021616475 -s 0 -d -1 -p tcp -e 1540 -c 2 -a 0 -i 2 -k AGT
+ -t 1.021616475 -s 0 -d -1 -p tcp -e 1540 -c 2 -a 0 -i 3 -k AGT 
- -t 1.021616475 -s 0 -d -1 -p tcp -e 1540 -c 2 -a 0 -i 3 -k AGT
h -t 1.021616475 -s 0 -d -1 -p tcp -e 1540 -c 2 -a 0 -i 3 -k AGT
+ -t 1.021616475 -s 0 -d 3 -p tcp -e 1540 -c 2 -a 0 -i 2 -k RTR 
- -t 1.021616475 -s 0 -d 3 -p tcp -e 1540 -c 2 -a 0 -i 2 -k RTR
h -t 1.021616475 -s 0 -d 3 -p tcp -e 1540 -c 2 -a 0 -i 2 -k RTR
+ -t 1.021616475 -s 0 -d 3 -p tcp -e 1540 -c 2 -a 0 -i 3 -k RTR 
- -t 1.021616475 -s 0 -d 3 -p tcp -e 1540 -c 2 -a 0 -i 3 -k RTR
h -t 1.021616475 -s 0 -d 3 -p tcp -e 1540 -c 2 -a 0 -i 3 -k RTR
+ -t 1.035681660 -s 3 -d 4 -p tcp -e 1540 -c 2 -a 0 -i 2 -k RTR 
- -t 1.035681660 -s 3 -d 4 -p tcp -e 1540 -c 2 -a 0 -i 2 -k RTR
h -t 1.035681660 -s 3 -d 4 -p tcp -e 1540 -c 2 -a 0 -i 2 -k RTR
+ -t 1.049687238 -s 3 -d 4 -p tcp -e 1540 -c 2 -a 0 -i 3 -k RTR 
- -t 1.049687238 -s 3 -d 4 -p tcp -e 1540 -c 2 -a 0 -i 3 -k RTR
h -t 1.049687238 -s 3 -d 4 -p tcp -e 1540 -c 2 -a 0 -i 3 -k RTR
r -t 1.063552893 -s 4 -d 4 -p tcp -e 1540 -c 2 -a 0 -i 2 -k AGT
+ -t 1.063552893 -s 4 -d -1 -p ack -e 40 -c 2 -a 0 -i 4 -k AGT 
- -t 1.063552893 -s 4 -d -1 -p ack -e 40 -c 2 -a 0 -i 4 -k AGT
h -t 1.063552893 -s 4 -d -1 -p ack -e 40 -c 2 -a 0 -i 4 -k AGT
+ -t 1.063552893 -s 4 -d 3 -p ack -e 40 -c 2 -a 0 -i 4 -k RTR 
- -t 1.063552893 -s 4 -d 3 -p ack -e 40 -c 2 -a 0 -i 4 -k RTR
h -t 1.063552893 -s 4 -d 3 -p ack -e 40 -c 2 -a 0 -i 4 -k RTR
+ -t 1.065778548 -s 3 -d 0 -p ack -e 40 -c 2 -a 0 -i 4 -k RTR 
- -t 1.065778548 -s 3 -d 0 -p ack -e 40 -c 2 -a 0 -i 4 -k RTR
h -t 1.065778548 -s 3 -d 0 -p ack -e 40 -c 2 -a 0 -i 4 -k RTR
r -t 1.079744202 -s 4 -d 4 -p tcp -e 1540 -c 2 -a 0 -i 3 -k AGT
+ -t 1.079744202 -s 4 -d -1 -p ack -e 40 -c 2 -a 0 -i 5 -k AGT 
- -t 1.079744202 -s 4 -d -1 -p ack -e 40 -c 2 -a 0 -i 5 -k AGT
h -t 1.079744202 -s 4 -d -1 -p ack -e 40 -c 2 -a 0 -i 5 -k AGT
+ -t 1.079744202 -s 4 -d 3 -p ack -e 40 -c 2 -a 0 -i 5 -k RTR 
- -t 1.079744202 -s 4 -d 3 -p ack -e 40 -c 2 -a 0 -i 5 -k RTR
h -t 1.079744202 -s 4 -d 3 -p ack -e 40 -c 2 -a 0 -i 5 -k RTR
r -t 1.081609936 -s 0 -d 0 -p ack -e 40 -c 2 -a 0 -i 4 -k AGT
+ -t 1.081609936 -s 0 -d -1 -p tcp -e 1540 -c 2 -a 0 -i 6 -k AGT 
- -t 1.081609936 -s 0 -d -1 -p tcp -e 1540 -c 2 -a 0 -i 6 -k AGT
h -t 1.081609936 -s 0 -d -1 -p tcp -e 1540 -c 2 -a 0 -i 6 -k AGT
+ -t 1.081609936 -s 0 -d -1 -p tcp -e 1540 -c 2 -a 0 -i 7 -k AGT 
- -t 1.081609936 -s 0 -d -1 -p tcp -e 1540 -c 2 -a 0 -i 7 -k AGT
h -t 1.081609936 -s 0 -d -1 -p tcp -e 1540 -c 2 -a 0 -i 7 -k AGT
+ -t 1.081609936 -s 0 -d 3 -p tcp -e 1540 -c 2 -a 0 -i 6 -k RTR 
- -t 1.081609936 -s 0 -d 3 -p tcp -e 1540 -c 2 -a 0 -i 6 -k RTR
h -t 1.081609936 -s 0 -d 3 -p tcp -e 1540 -c 2 -a 0 -i 6 -k RTR
+ -t 1.081609936 -s 0 -d 3 -p tcp -e 1540 -c 2 -a 0 -i 7 -k RTR 
- -t 1.081609936 -s 0 -d 3 -p tcp -e 1540 -c 2 -a 0 -i 7 -k RTR
h -t 1.081609936 -s 0 -d 3 -p tcp -e 1540 -c 2 -a 0 -i 7 -k RTR
+ -t 1.095895119 -s 3 -d 4 -p tcp -e 1540 -c 2 -a 0 -i 6 -k RTR 
- -t 1.095895119 -s 3 -d 4 -p tcp -e 1540 -c 2 -a 0 -i 6 -k RTR
h -t 1.095895119 -s 3 -d 4 -p tcp -e 1540 -c 2 -a 0 -i 6 -k RTR
+ -t 1.109860695 -s 3 -d 4 -p tcp -e 1540 -c 2 -a 0 -i 7 -k RTR 
- -t 1.109860695 -s 3 -d 4 -p tcp -e 1540 -c 2 -a 0 -i 7 -k RTR
h -t 1.109860695 -s 3 -d 4 -p tcp -e 1540 -c 2 -a 0 -i 7 -k RTR
+ -t 1.111756899 -s 3 -d 0 -p ack -e 40 -c 2 -a 0 -i 5 -k RTR 
- -t 1.111756899 -s 3 -d 0 -p ack -e 40 -c 2 -a 0 -i 5 -k RTR
h -t 1.111756899 -s 3 -d 0 -p ack -e 40 -c 2 -a 0 -i 5 -k RTR
r -t 1.125742554 -s 4 -d 4 -p tcp -e 1540 -c 2 -a 0 -i 6 -k AGT
+ -t 1.125742554 -s 4 -d -1 -p ack -e 40 -c 2 -a 0 -i 8 -k AGT 
- -t 1.125742554 -s 4 -d -1 -p ack -e 40 -c 2 -a 0 -i 8 -k AGT
h -t 1.125742554 -s 4 -d -1 -p ack -e 40 -c 2 -a 0 -i 8 -k AGT
+ -t 1.125742554 -s 4 -d 3 -p ack -e 40 -c 2 -a 0 -i 8 -k RTR 
- -t 1.125742554 -s 4 -d 3 -p ack -e 40 -c 2 -a 0 -i 8 -k RTR
h -t 1.125742554 -s 4 -d 3 -p ack -e 40 -c 2 -a 0 -i 8 -k RTR
+ -t 1.127688209 -s 3 -d 0 -p ack -e 40 -c 2 -a 0 -i 8 -k RTR 
- -t 1.127688209 -s 3 -d 0 -p ack -e 40 -c 2 -a 0 -i 8 -k RTR
h -t 1.127688209 -s 3 -d 0 -p ack -e 40 -c 2 -a 0 -i 8 -k RTR
r -t 1.141593864 -s 4 -d 4 -p tcp -e 1540 -c 2 -a 0 -i 7 -k AGT
+ -t 1.141593864 -s 4 -d -1 -p ack -e 40 -c 2 -a 0 -i 9 -k AGT 
- -t 1.141593864 -s 4 -d -1 -p ack -e 40 -c 2 -a 0 -i 9 -k AGT
h -t 1.141593864 -s 4 -d -1 -p ack -e 40 -c 2 -a 0 -i 9 -k AGT
+ -t 1.141593864 -s 4 -d 3 -p ack -e 40 -c 2 -a 0 -i 9 -k RTR 
- -t 1.141593864 -s 4 -d 3 -p ack -e 40 -c 2 -a 0 -i 9 -k RTR
h -t 1.141593864 -s 4 -d 3 -p ack -e 40 -c 2 -a 0 -i 9 -k RTR
+ -t 1.143439519 -s 3 -d 0 -p ack -e 40 -c 2 -a 0 -i 9 -k RTR 
- -t 1.143439519 -s 3 -d 0 -p ack -e 40 -c 2 -a 0 -i 9 -k RTR
h -t 1.143439519 -s 3 -d 0 -p ack -e 40 -c 2 -a 0 -i 9 -k RTR
r -t 1.145764700 -s 0 -d 0 -p ack -e 40 -c 2 -a 0 -i 5 -k AGT
+ -t 1.145764700 -s 0 -d -1 -p tcp -e 1540 -c 2 -a 0 -i 10 -k AGT 
- -t 1.145764700 -s 0 -d -1 -p tcp -e 1540 -c 2 -a 0 -i 10 -k AGT
h -t 1.145764700 -s 0 -d -1 -p tcp -e 1540 -c 2 -a 0 -i 10 -k AGT
+ -t 1.145764700 -s 0 -d -1 -p tcp -e 1540 -c 2 -a 0 -i 11 -k AGT 
- -t 1.145764700 -s 0 -d -1 -p tcp -e 1540 -c 2 -a 0 -i 11 -k AGT
h -t 1.145764700 -s 0 -d -1 -p tcp -e 1540 -c 2 -a 0 -i 11 -k AGT
+ -t 1.145764700 -s 0 -d 3 -p tcp -e 1540 -c 2 -a 0 -i 10 -k RTR 
- -t 1.145764700 -s 0 -d 3 -p tcp -e 1540 -c 2 -a 0 -i 10 -k RTR
h -t 1.145764700 -s 0 -d 3 -p tcp -e 1540 -c 2 -a 0 -i 10 -k RTR
+ -t 1.145764700 -s 0 -d 3 -p tcp -e 1540 -c 2 -a 0 -i 11 -k RTR 
- -t 1.145764700 -s 0 -d 3 -p tcp -e 1540 -c 2 -a 0 -i 11 -k RTR
h -t 1.145764700 -s 0 -d 3 -p tcp -e 1540 -c 2 -a 0 -i 11 -k RTR
+ -t 1.159789880 -s 3 -d 4 -p tcp -e 1540 -c 2 -a 0 -i 10 -k RTR 
- -t 1.159789880 -s 3 -d 4 -p tcp -e 1540 -c 2 -a 0 -i 10 -k RTR
h -t 1.159789880 -s 3 -d 4 -p tcp -e 1540 -c 2 -a 0 -i 10 -k RTR
+ -t 1.173675454 -s 3 -d 4 -p tcp -e 1540 -c 2 -a 0 -i 11 -k RTR 
- -t 1.173675454 -s 3 -d 4 -p tcp -e 1540 -c 2 -a 0 -i 11 -k RTR
h -t 1.173675454 -s 3 -d 4 -p tcp -e 1540 -c 2 -a 0 -i 11 -k RTR
r -t 1.175840633 -s 0 -d 0 -p ack -e 40 -c 2 -a 0 -i 8 -k AGT
+ -t 1.175840633 -s 0 -d -1 -p tcp -e 1540 -c 2 -a 0 -i 12 -k AGT 
- -t 1.175840633 -s 0 -d -1 -p tcp -e 1540 -c 2 -a 0 -i 12 -k AGT
h -t 1.175840633 -s 0 -d -1 -p tcp -e 1540 -c 2 -a 0 -i 12 -k AGT
+ -t 1.175840633 -s 0 -d -1 -p tcp -e 1540 -c 2 -a 0 -i 13 -k AGT 
- -t 1.175840633 -s 0 -d -1 -p tcp -e 1540 -c 2 -a 0 -i 13 -k AGT
h -t 1.175840633 -s 0 -d -1 -p tcp -e 1540 -c 2 -a 0 -i 13 -k AGT
+ -t 1.175840633 -s 0 -d 3 -p tcp -e 1540 -c 2 -a 0 -i 12 -k RTR 
- -t 1.175840633 -s 0 -d 3 -p tcp -e 1540 -c 2 -a 0 -i 12 -k RTR
h -t 1.175840633 -s 0 -d 3 -p tcp -e 1540 -c 2 -a 0 -i 12 -k RTR
+ -t 1.175840633 -s 0 -d 3 -p tcp -e 1540 -c 2 -a 0 -i 13 -k RTR 
- -t 1.175840633 -s 0 -d 3 -p tcp -e 1540 -c 2 -a 0 -i 13 -k RTR
h -t 1.175840633 -s 0 -d 3 -p tcp -e 1540 -c 2 -a 0 -i 13 -k RTR
+ -t 1.190005813 -s 3 -d 4 -p tcp -e 1540 -c 2 -a 0 -i 12 -k RTR 
- -t 1.190005813 -s 3 -d 4 -p tcp -e 1540 -c 2 -a 0 -i 12 -k RTR
h -t 1.190005813 -s 3 -d 4 -p tcp -e 1540 -c 2 -a 0 -i 12 -k RTR
r -t 1.192010992 -s 0 -d 0 -p ack -e 40 -c 2 -a 0 -i 9 -k AGT
+ -t 1.192010992 -s 0 -d -1 -p tcp -e 1540 -c 2 -a 0 -i 14 -k AGT 
- -t 1.192010992 -s 0 -d -1 -p tcp -e 1540 -c 2 -a 0 -i 14 -k AGT
h -t 1.192010992 -s 0 -d -1 -p tcp -e 1540 -c 2 -a 0 -i 14 -k AGT
+ -t 1.192010992 -s 0 -d -1 -p tcp -e 1540 -c 2 -a 0 -i 15 -k AGT 
- -t 1.192010992 -s 0 -d -1 -p tcp -e 1540 -c 2 -a 0 -i 15 -k AGT
h -t 1.192010992 -s 0 -d -1 -p tcp -e 1540 -c 2 -a 0 -i 15 -k AGT
+ -t 1.192010992 -s 0 -d 3 -p tcp -e 1540 -c 2 -a 0 -i 14 -k RTR 
- -t 1.192010992 -s 0 -d 3 -p tcp -e 1540 -c 2 -a 0 -i 14 -k RTR
h -t 1.192010992 -s 0 -d 3 -p tcp -e 1540 -c 2 -a 0 -i 14 -k RTR
+ -t 1.192010992 -s 0 -d 3 -p tcp -e 1540 -c 2 -a 0 -i 15 -k RTR 
- -t 1.192010992 -s 0 -d 3 -p tcp -e 1540 -c 2 -a 0 -i 15 -k RTR
h -t 1.192010992 -s 0 -d 3 -p tcp -e 1540 -c 2 -a 0 -i 15 -k RTR
+ -t 1.205956171 -s 3 -d 4 -p tcp -e 1540 -c 2 -a 0 -i 13 -k RTR 
- -t 1.205956171 -s 3 -d 4 -p tcp -e 1540 -c 2 -a 0 -i 13 -k RTR
h -t 1.205956171 -s 3 -d 4 -p tcp -e 1540 -c 2 -a 0 -i 13 -k RTR
r -t 1.219861827 -s 4 -d 4 -p tcp -e 1540 -c 2 -a 0 -i 10 -k AGT
+ -t 1.219861827 -s 4 -d -1 -p ack -e 40 -c 2 -a 0 -i 16 -k AGT 
- -t 1.219861827 -s 4 -d -1 -p ack -e 40 -c 2 -a 0 -i 16 -k AGT
h -t 1.219861827 -s 4 -d -1 -p ack -e 40 -c 2 -a 0 -i 16 -k AGT
+ -t 1.219861827 -s 4 -d 3 -p ack -e 40 -c 2 -a 0 -i 16 -k RTR 
- -t 1.219861827 -s 4 -d 3 -p ack -e 40 -c 2 -a 0 -i 16 -k RTR
h -t 1.219861827 -s 4 -d 3 -p ack -e 40 -c 2 -a 0 -i 16 -k RTR
r -t 1.233688034 -s 4 -d 4 -p tcp -e 1540 -c 2 -a 0 -i 11 -k AGT
+ -t 1.233688034 -s 4 -d -1 -p ack -e 40 -c 2 -a 0 -i 17 -k AGT 
- -t 1.233688034 -s 4 -d -1 -p ack -e 40 -c 2 -a 0 -i 17 -k AGT
h -t 1.233688034 -s 4 -d -1 -p ack -e 40 -c 2 -a 0 -i 17 -k AGT
+ -t 1.233688034 -s 4 -d 3 -p ack -e 40 -c 2 -a 0 -i 17 -k RTR 
- -t 1.233688034 -s 4 -d 3 -p ack -e 40 -c 2 -a 0 -i 17 -k RTR
h -t 1.233688034 -s 4 -d 3 -p ack -e 40 -c 2 -a 0 -i 17 -k RTR
r -t 1.247734241 -s 4 -d 4 -p tcp -e 1540 -c 2 -a 0 -i 12 -k AGT
+ -t 1.247734241 -s 4 -d -1 -p ack -e 40 -c 2 -a 0 -i 18 -k AGT 
- -t 1.247734241 -s 4 -d -1 -p ack -e 40 -c 2 -a 0 -i 18 -k AGT
h -t 1.247734241 -s 4 -d -1 -p ack -e 40 -c 2 -a 0 -i 18 -k AGT
+ -t 1.247734241 -s 4 -d 3 -p ack -e 40 -c 2 -a 0 -i 18 -k RTR 
- -t 1.247734241 -s 4 -d 3 -p ack -e 40 -c 2 -a 0 -i 18 -k RTR
h -t 1.247734241 -s 4 -d 3 -p ack -e 40 -c 2 -a 0 -i 18 -k RTR
+ -t 1.249819897 -s 3 -d 0 -p ack -e 40 -c 2 -a 0 -i 16 -k RTR 
- -t 1.249819897 -s 3 -d 0 -p ack -e 40 -c 2 -a 0 -i 16 -k RTR
h -t 1.249819897 -s 3 -d 0 -p ack -e 40 -c 2 -a 0 -i 16 -k RTR
r -t 1.263705553 -s 4 -d 4 -p tcp -e 1540 -c 2 -a 0 -i 13 -k AGT
+ -t 1.263705553 -s 4 -d -1 -p ack -e 40 -c 2 -a 0 -i 19 -k AGT 
- -t 1.263705553 -s 4 -d -1 -p ack -e 40 -c 2 -a 0 -i 19 -k AGT
h -t 1.263705553 -s 4 -d -1 -p ack -e 40 -c 2 -a 0 -i 19 -k AGT
+ -t 1.263705553 -s 4 -d 3 -p ack -e 40 -c 2 -a 0 -i 19 -k RTR 
- -t 1.263705553 -s 4 -d 3 -p ack -e 40 -c 2 -a 0 -i 19 -k RTR
h -t 1.263705553 -s 4 -d 3 -p ack -e 40 -c 2 -a 0 -i 19 -k RTR
+ -t 1.265631208 -s 3 -d 0 -p ack -e 40 -c 2 -a 0 -i 17 -k RTR 
- -t 1.265631208 -s 3 -d 0 -p ack -e 40 -c 2 -a 0 -i 17 -k RTR
h -t 1.265631208 -s 3 -d 0 -p ack -e 40 -c 2 -a 0 -i 17 -k RTR
+ -t 1.267537416 -s 3 -d 0 -p ack -e 40 -c 2 -a 0 -i 18 -k RTR 
- -t 1.267537416 -s 3 -d 0 -p ack -e 40 -c 2 -a 0 -i 18 -k RTR
h -t 1.267537416 -s 3 -d 0 -p ack -e 40 -c 2 -a 0 -i 18 -k RTR
r -t 1.269402593 -s 0 -d 0 -p ack -e 40 -c 2 -a 0 -i 16 -k AGT
+ -t 1.269402593 -s 0 -d -1 -p tcp -e 1540 -c 2 -a 0 -i 20 -k AGT 
- -t 1.269402593 -s 0 -d -1 -p tcp -e 1540 -c 2 -a 0 -i 20 -k AGT
h -t 1.269402593 -s 0 -d -1 -p tcp -e 1540 -c 2 -a 0 -i 20 -k AGT
+ -t 1.269402593 -s 0 -d -1 -p tcp -e 1540 -c 2 -a 0 -i 21 -k AGT 
- -t 1.269402593 -s 0 -d -1 -p tcp -e 1540 -c 2 -a 0 -i 21 -k AGT
h -t 1.269402593 -s 0 -d -1 -p tcp -e 1540 -c 2 -a 0 -i 21 -k AGT
+ -t 1.269402593 -s 0 -d 3 -p tcp -e 1540 -c 2 -a 0 -i 20 -k RTR 
- -t 1.269402593 -s 0 -d 3 -p tcp -e 1540 -c 2 -a 0 -i 20 -k RTR
h -t 1.269402593 -s 0 -d 3 -p tcp -e 1540 -c 2 -a 0 -i 20 -k RTR
+ -t 1.269402593 -s 0 -d 3 -p tcp -e 1540 -c 2 -a 0 -i 21 -k RTR 
- -t 1.269402593 -s 0 -d 3 -p tcp -e 1540 -c 2 -a 0 -i 21 -k RTR
h -t 1.269402593 -s 0 -d 3 -p tcp -e 1540 -c 2 -a 0 -i 21 -k RTR
r -t 1.271228162 -s 0 -d 0 -p ack -e 40 -c 2 -a 0 -i 17 -k AGT
+ -t 1.271228162 -s 0 -d -1 -p tcp -e 1540 -c 2 -a 0 -i 22 -k AGT 
- -t 1.271228162 -s 0 -d -1 -p tcp -e 1540 -c 2 -a 0 -i 22 -k AGT
h -t 1.271228162 -s 0 -d -1 -p tcp -e 1540 -c 2 -a 0 -i 22 -k AGT
+ -t 1.271228162 -s 0 -d -1 -p tcp -e 1540 -c 2 -a 0 -i 23 -k AGT 
- -t 1.271228162 -s 0 -d -1 -p tcp -e 1540 -c 2 -a 0 -i 23 -k AGT
h -t 1.271228162 -s 0 -d -1 -p tcp -e 1540 -c 2 -a 0 -i 23 -k AGT
+ -t 1.271228162 -s 0 -d 3 -p tcp -e 1540 -c 2 -a 0 -i 22 -k RTR 
- -t 1.271228162 -s 0 -d 3 -p tcp -e 1540 -c 2 -a 0 -i 22 -k RTR
h -t 1.271228162 -s 0 -d 3 -p tcp -e 1540 -c 2 -a 0 -i 22 -k RTR
+ -t 1.271228162 -s 0 -d 3 -p tcp -e 1540 -c 2 -a 0 -i 23 -k RTR 
- -t 1.271228162 -s 0 -d 3 -p tcp -e 1540 -c 2 -a 0 -i 23 -k RTR
h -t 1.271228162 -s 0 -d 3 -p tcp -e 1540 -c 2 -a 0 -i 23 -k RTR
+ -t 1.285253338 -s 3 -d 4 -p tcp -e 1540 -c 2 -a 0 -i 14 -k RTR 
- -t 1.285253338 -s 3 -d 4 -p tcp -e 1540 -c 2 -a 0 -i 14 -k RTR
h -t 1.285253338 -s 3 -d 4 -p tcp -e 1540 -c 2 -a 0 -i 14 -k RTR
r -t 1.287138514 -s 0 -d 0 -p ack -e 40 -c 2 -a 0 -i 18 -k AGT
+ -t 1.287138514 -s 0 -d -1 -p tcp -e 1540 -c 2 -a 0 -i 24 -k AGT 
- -t 1.287138514 -s 0 -d -1 -p tcp -e 1540 -c 2 -a 0 -i 24 -k AGT
h -t 1.287138514 -s 0 -d -1 -p tcp -e 1540 -c 2 -a 0 -i 24 -k AGT
+ -t 1.287138514 -s 0 -d -1 -p tcp -e 1540 -c 2 -a 0 -i 25 -k AGT 
- -t 1.287138514 -s 0 -d -1 -p tcp -e 1540 -c 2 -a 0 -i 25 -k AGT
h -t 1.287138514 -s 0 -d -1 -p tcp -e 1540 -c 2 -a 0 -i 25 -k AGT
+ -t 1.287138514 -s 0 -d 3 -p tcp -e 1540 -c 2 -a 0 -i 24 -k RTR 
- -t 1.287138514 -s 0 -d 3 -p tcp -e 1540 -c 2 -a 0 -i 24 -k RTR
h -t 1.287138514 -s 0 -d 3 -p tcp -e 1540 -c 2 -a 0 -i 24 -k RTR
+ -t 1.287138514 -s 0 -d 3 -p tcp -e 1540 -c 2 -a 0 -i 25 -k RTR 
- -t 1.287138514 -s 0 -d 3 -p tcp -e 1540 -c 2 -a 0 -i 25 -k RTR
h -t 1.287138514 -s 0 -d 3 -p tcp -e 1540 -c 2 -a 0 -i 25 -k RTR
+ -t 1.301223691 -s 3 -d 4 -p tcp -e 1540 -c 2 -a 0 -i 15 -k RTR 
- -t 1.301223691 -s 3 -d 4 -p tcp -e 1540 -c 2 -a 0 -i 15 -k RTR
h -t 1.301223691 -s 3 -d 4 -p tcp -e 1540 -c 2 -a 0 -i 15 -k RTR
+ -t 1.315069258 -s 3 -d 4 -p tcp -e 1540 -c 2 -a 0 -i 20 -k RTR 
- -t 1.315069258 -s 3 -d 4 -p tcp -e 1540 -c 2 -a 0 -i 20 -k RTR
h -t 1.315069258 -s 3 -d 4 -p tcp -e 1540 -c 2 -a 0 -i 20 -k RTR
r -t 1.328914914 -s 4 -d 4 -p tcp -e 1540 -c 2 -a 0 -i 14 -k AGT
+ -t 1.328914914 -s 4 -d -1 -p ack -e 40 -c 2 -a 0 -i 26 -k AGT 
- -t 1.328914914 -s 4 -d -1 -p ack -e 40 -c 2 -a 0 -i 26 -k AGT
h -t 1.328914914 -s 4 -d -1 -p ack -e 40 -c 2 -a 0 -i 26 -k AGT
+ -t 1.328914914 -s 4 -d 3 -p ack -e 40 -c 2 -a 0 -i 26 -k RTR 
- -t 1.328914914 -s 4 -d 3 -p ack -e 40 -c 2 -a 0 -i 26 -k RTR
h -t 1.328914914 -s 4 -d 3 -p ack -e 40 -c 2 -a 0 -i 26 -k RTR
r -t 1.342981122 -s 4 -d 4 -p tcp -e 1540 -c 2 -a 0 -i 15 -k AGT
+ -t 1.342981122 -s 4 -d -1 -p ack -e 40 -c 2 -a 0 -i 27 -k AGT 
- -t 1.342981122 -s 4 -d -1 -p ack -e 40 -c 2 -a 0 -i 27 -k AGT
h -t 1.342981122 -s 4 -d -1 -p ack -e 40 -c 2 -a 0 -i 27 -k AGT
+ -t 1.342981122 -s 4 -d 3 -p ack -e 40 -c 2 -a 0 -i 27 -k RTR 
- -t 1.342981122 -s 4 -d 3 -p ack -e 40 -c 2 -a 0 -i 27 -k RTR
h -t 1.342981122 -s 4 -d 3 -p ack -e 40 -c 2 -a 0 -i 27 -k RTR
+ -t 1.344826778 -s 3 -d 0 -p ack -e 40 -c 2 -a 0 -i 19 -k RTR 
- -t 1.344826778 -s 3 -d 0 -p ack -e 40 -c 2 -a 0 -i 19 -k RTR
h -t 1.344826778 -s 3 -d 0 -p ack -e 40 -c 2 -a 0 -i 19 -k RTR
r -t 1.358752435 -s 4 -d 4 -p tcp -e 1540 -c 2 -a 0 -i 20 -k AGT
+ -t 1.358752435 -s 4 -d -1 -p ack -e 40 -c 2 -a 0 -i 28 -k AGT 
- -t 1.358752435 -s 4 -d -1 -p ack -e 40 -c 2 -a 0 -i 28 -k AGT
h -t 1.358752435 -s 4 -d -1 -p ack -e 40 -c 2 -a 0 -i 28 -k AGT
+ -t 1.358752435 -s 4 -d 3 -p ack -e 40 -c 2 -a 0 -i 28 -k RTR 
- -t 1.358752435 -s 4 -d 3 -p ack -e 40 -c 2 -a 0 -i 28 -k RTR
h -t 1.358752435 -s 4 -d 3 -p ack -e 40 -c 2 -a 0 -i 28 -k RTR
r -t 1.360618161 -s 0 -d 0 -p ack -e 40 -c 2 -a 0 -i 19 -k AGT
+ -t 1.360618161 -s 0 -d -1 -p tcp -e 1540 -c 2 -a 0 -i 29 -k AGT 
- -t 1.360618161 -s 0 -d -1 -p tcp -e 1540 -c 2 -a 0 -i 29 -k AGT
h -t 1.360618161 -s 0 -d -1 -p tcp -e 1540 -c 2 -a 0 -i 29 -k AGT
+ -t 1.360618161 -s 0 -d -1 -p tcp -e 1540 -c 2 -a 0 -i 30 -k AGT 
- -t 1.360618161 -s 0 -d -1 -p tcp -e 1540 -c 2 -a 0 -i 30 -k AGT
h -t 1.360618161 -s 0 -d -1 -p tcp -e 1540 -c 2 -a 0 -i 30 -k AGT
+ -t 1.360618161 -s 0 -d 3 -p tcp -e 1540 -c 2 -a 0 -i 29 -k RTR 
- -t 1.360618161 -s 0 -d 3 -p tcp -e 1540 -c 2 -a 0 -i 29 -k RTR
h -t 1.360618161 -s 0 -d 3 -p tcp -e 1540 -c 2 -a 0 -i 29 -k RTR
+ -t 1.360618161 -s 0 -d 3 -p tcp -e 1540 -c 2 -a 0 -i 30 -k RTR 
- -t 1.360618161 -s 0 -d 3 -p tcp -e 1540 -c 2 -a 0 -i 30 -k RTR
h -t 1.360618161 -s 0 -d 3 -p tcp -e 1540 -c 2 -a 0 -i 30 -k RTR
+ -t 1.374883334 -s 3 -d 4 -p tcp -e 1540 -c 2 -a 0 -i 21 -k RTR 
- -t 1.374883334 -s 3 -d 4 -p tcp -e 1540 -c 2 -a 0 -i 21 -k RTR
h -t 1.374883334 -s 3 -d 4 -p tcp -e 1540 -c 2 -a 0 -i 21 -k RTR
r -t 1.388748991 -s 4 -d 4 -p tcp -e 1540 -c 2 -a 0 -i 21 -k AGT
+ -t 1.388748991 -s 4 -d -1 -p ack -e 40 -c 2 -a 0 -i 31 -k AGT 
- -t 1.388748991 -s 4 -d -1 -p ack -e 40 -c 2 -a 0 -i 31 -k AGT
h -t 1.388748991 -s 4 -d -1 -p ack -e 40 -c 2 -a 0 -i 31 -k AGT
+ -t 1.388748991 -s 4 -d 3 -p ack -e 40 -c 2 -a 0 -i 31 -k RTR 
- -t 1.388748991 -s 4 -d 3 -p ack -e 40 -c 2 -a 0 -i 31 -k RTR
h -t 1.388748991 -s 4 -d 3 -p ack -e 40 -c 2 -a 0 -i 31 -k RTR
+ -t 1.390674647 -s 3 -d 0 -p ack -e 40 -c 2 -a 0 -i 26 -k RTR 
- -t 1.390674647 -s 3 -d 0 -p ack -e 40 -c 2 -a 0 -i 26 -k RTR
h -t 1.390674647 -s 3 -d 0 -p ack -e 40 -c 2 -a 0 -i 26 -k RTR
+ -t 1.405427314 -s 3 -d 4 -p tcp -e 1540 -c 2 -a 0 -i 22 -k RTR 
- -t 1.405427314 -s 3 -d 4 -p tcp -e 1540 -c 2 -a 0 -i 22 -k RTR
h -t 1.405427314 -s 3 -d 4 -p tcp -e 1540 -c 2 -a 0 -i 22 -k RTR
+ -t 1.407323520 -s 3 -d 0 -p ack -e 40 -c 2 -a 0 -i 27 -k RTR 
- -t 1.407323520 -s 3 -d 0 -p ack -e 40 -c 2 -a 0 -i 27 -k RTR
h -t 1.407323520 -s 3 -d 0 -p ack -e 40 -c 2 -a 0 -i 27 -k RTR
+ -t 1.409209729 -s 3 -d 0 -p ack -e 40 -c 2 -a 0 -i 28 -k RTR 
- -t 1.409209729 -s 3 -d 0 -p ack -e 40 -c 2 -a 0 -i 28 -k RTR
h -t 1.409209729 -s 3 -d 0 -p ack -e 40 -c 2 -a 0 -i 28 -k RTR
+ -t 1.423225291 -s 3 -d 4 -p tcp -e 1540 -c 2 -a 0 -i 23 -k RTR 
- -t 1.423225291 -s 3 -d 4 -p tcp -e 1540 -c 2 -a 0 -i 23 -k RTR
h -t 1.423225291 -s 3 -d 4 -p tcp -e 1540 -c 2 -a 0 -i 23 -k RTR
+ -t 1.425261498 -s 3 -d 0 -p ack -e 40 -c 2 -a 0 -i 31 -k RTR 
- -t 1.425261498 -s 3 -d 0 -p ack -e 40 -c 2 -a 0 -i 31 -k RTR
h -t 1.425261498 -s 3 -d 0 -p ack -e 40 -c 2 -a 0 -i 31 -k RTR
r -t 1.427246670 -s 0 -d 0 -p ack -e 40 -c 2 -a 0 -i 26 -k AGT
+ -t 1.427246670 -s 0 -d -1 -p tcp -e 1540 -c 2 -a 0 -i 32 -k AGT 
- -t 1.427246670 -s 0 -d -1 -p tcp -e 1540 -c 2 -a 0 -i 32 -k AGT
h -t 1.427246670 -s 0 -d -1 -p tcp -e 1540 -c 2 -a 0 -i 32 -k AGT
+ -t 1.427246670 -s 0 -d -1 -p tcp -e 1540 -c 2 -a 0 -i 33 -k AGT 
- -t 1.427246670 -s 0 -d -1 -p tcp -e 1540 -c 2 -a 0 -i 33 -k AGT
h -t 1.427246670 -s 0 -d -1 -p tcp -e 1540 -c 2 -a 0 -i 33 -k AGT
+ -t 1.427246670 -s 0 -d 3 -p tcp -e 1540 -c 2 -a 0 -i 32 -k RTR 
- -t 1.427246670 -s 0 -d 3 -p tcp -e 1540 -c 2 -a 0 -i 32 -k RTR
h -t 1.427246670 -s 0 -d 3 -p tcp -e 1540 -c 2 -a 0 -i 32 -k RTR
+ -t 1.427246670 -s 0 -d 3 -p tcp -e 1540 -c 2 -a 0 -i 33 -k RTR 
- -t 1.427246670 -s 0 -d 3 -p tcp -e 1540 -c 2 -a 0 -i 33 -k RTR
h -t 1.427246670 -s 0 -d 3 -p tcp -e 1540 -c 2 -a 0 -i 33 -k RTR
r -t 1.441132717 -s 4 -d 4 -p tcp -e 1540 -c 2 -a 0 -i 22 -k AGT
+ -t 1.441132717 -s 4 -d -1 -p ack -e 40 -c 2 -a 0 -i 34 -k AGT 
- -t 1.441132717 -s 4 -d -1 -p ack -e 40 -c 2 -a 0 -i 34 -k AGT
h -t 1.441132717 -s 4 -d -1 -p ack -e 40 -c 2 -a 0 -i 34 -k AGT
+ -t 1.441132717 -s 4 -d 3 -p ack -e 40 -c 2 -a 0 -i 34 -k RTR 
- -t 1.441132717 -s 4 -d 3 -p ack -e 40 -c 2 -a 0 -i 34 -k RTR
h -t 1.441132717 -s 4 -d 3 -p ack -e 40 -c 2 -a 0 -i 34 -k RTR
r -t 1.443078440 -s 0 -d 0 -p ack -e 40 -c 2 -a 0 -i 27 -k AGT
+ -t 1.443078440 -s 0 -d -1 -p tcp -e 1540 -c 2 -a 0 -i 35 -k AGT 
- -t 1.443078440 -s 0 -d -1 -p tcp -e 1540 -c 2 -a 0 -i 35 -k AGT
h -t 1.443078440 -s 0 -d -1 -p tcp -e 1540 -c 2 -a 0 -i 35 -k AGT
+ -t 1.443078440 -s 0 -d -1 -p tcp -e 1540 -c 2 -a 0 -i 36 -k AGT 
- -t 1.443078440 -s 0 -d -1 -p tcp -e 1540 -c 2 -a 0 -i 36 -k AGT
h -t 1.443078440 -s 0 -d -1 -p tcp -e 1540 -c 2 -a 0 -i 36 -k AGT
+ -t 1.443078440 -s 0 -d 3 -p tcp -e 1540 -c 2 -a 0 -i 35 -k RTR 
- -t 1.443078440 -s 0 -d 3 -p tcp -e 1540 -c 2 -a 0 -i 35 -k RTR
h -t 1.443078440 -s 0 -d 3 -p tcp -e 1540 -c 2 -a 0 -i 35 -k RTR
+ -t 1.443078440 -s 0 -d 3 -p tcp -e 1540 -c 2 -a 0 -i 36 -k RTR 
- -t 1.443078440 -s 0 -d 3 -p tcp -e 1540 -c 2 -a 0 -i 36 -k RTR
h -t 1.443078440 -s 0 -d 3 -p tcp -e 1540 -c 2 -a 0 -i 36 -k RTR
+ -t 1.457143612 -s 3 -d 4 -p tcp -e 1540 -c 2 -a 0 -i 24 -k RTR 
- -t 1.457143612 -s 3 -d 4 -p tcp -e 1540 -c 2 -a 0 -i 24 -k RTR
h -t 1.457143612 -s 3 -d 4 -p tcp -e 1540 -c 2 -a 0 -i 24 -k RTR
r -t 1.459348783 -s 0 -d 0 -p ack -e 40 -c 2 -a 0 -i 28 -k AGT
+ -t 1.459348783 -s 0 -d -1 -p tcp -e 1540 -c 2 -a 0 -i 37 -k AGT 
- -t 1.459348783 -s 0 -d -1 -p tcp -e 1540 -c 2 -a 0 -i 37 -k AGT
h -t 1.459348783 -s 0 -d -1 -p tcp -e 1540 -c 2 -a 0 -i 37 -k AGT
+ -t 1.459348783 -s 0 -d -1 -p tcp -e 1540 -c 2 -a 0 -i 38 -k AGT 
- -t 1.459348783 -s 0 -d -1 -p tcp -e 1540 -c 2 -a 0 -i 38 -k AGT
h -t 1.459348783 -s 0 -d -1 -p tcp -e 1540 -c 2 -a 0 -i 38 -k AGT
+ -t 1.459348783 -s 0 -d 3 -p tcp -e 1540 -c 2 -a 0 -i 37 -k RTR 
- -t 1.459348783 -s 0 -d 3 -p tcp -e 1540 -c 2 -a 0 -i 37 -k RTR
h -t 1.459348783 -s 0 -d 3 -p tcp -e 1540 -c 2 -a 0 -i 37 -k RTR
+ -t 1.459348783 -s 0 -d 3 -p tcp -e 1540 -c 2 -a 0 -i 38 -k RTR 
- -t 1.459348783 -s 0 -d 3 -p tcp -e 1540 -c 2 -a 0 -i 38 -k RTR
h -t 1.459348783 -s 0 -d 3 -p tcp -e 1540 -c 2 -a 0 -i 38 -k RTR
+ -t 1.473253954 -s 3 -d 4 -p tcp -e 1540 -c 2 -a 0 -i 25 -k RTR 
- -t 1.473253954 -s 3 -d 4 -p tcp -e 1540 -c 2 -a 0 -i 25 -k RTR
h -t 1.473253954 -s 3 -d 4 -p tcp -e 1540 -c 2 -a 0 -i 25 -k RTR
+ -t 1.475270161 -s 3 -d 0 -p ack -e 40 -c 2 -a 0 -i 34 -k RTR 
- -t 1.475270161 -s 3 -d 0 -p ack -e 40 -c 2 -a 0 -i 34 -k RTR
h -t 1.475270161 -s 3 -d 0 -p ack -e 40 -c 2 -a 0 -i 34 -k RTR
+ -t 1.489265720 -s 3 -d 4 -p tcp -e 1540 -c 2 -a 0 -i 29 -k RTR 
- -t 1.489265720 -s 3 -d 4 -p tcp -e 1540 -c 2 -a 0 -i 29 -k RTR
h -t 1.489265720 -s 3 -d 4 -p tcp -e 1540 -c 2 -a 0 -i 29 -k RTR
r -t 1.503231377 -s 4 -d 4 -p tcp -e 1540 -c 2 -a 0 -i 23 -k AGT
+ -t 1.503231377 -s 4 -d -1 -p ack -e 40 -c 2 -a 0 -i 39 -k AGT 
- -t 1.503231377 -s 4 -d -1 -p ack -e 40 -c 2 -a 0 -i 39 -k AGT
h -t 1.503231377 -s 4 -d -1 -p ack -e 40 -c 2 -a 0 -i 39 -k AGT
+ -t 1.503231377 -s 4 -d 3 -p ack -e 40 -c 2 -a 0 -i 39 -k RTR 
- -t 1.503231377 -s 4 -d 3 -p ack -e 40 -c 2 -a 0 -i 39 -k RTR
h -t 1.503231377 -s 4 -d 3 -p ack -e 40 -c 2 -a 0 -i 39 -k RTR
+ -t 1.505117034 -s 3 -d 0 -p ack -e 40 -c 2 -a 0 -i 39 -k RTR 
- -t 1.505117034 -s 3 -d 0 -p ack -e 40 -c 2 -a 0 -i 39 -k RTR
h -t 1.505117034 -s 3 -d 0 -p ack -e 40 -c 2 -a 0 -i 39 -k RTR
+ -t 1.519172592 -s 3 -d 4 -p tcp -e 1540 -c 2 -a 0 -i 30 -k RTR 
- -t 1.519172592 -s 3 -d 4 -p tcp -e 1540 -c 2 -a 0 -i 30 -k RTR
h -t 1.519172592 -s 3 -d 4 -p tcp -e 1540 -c 2 -a 0 -i 30 -k RTR
r -t 1.521057761 -s 0 -d 0 -p ack -e 40 -c 2 -a 0 -i 31 -k AGT
+ -t 1.521057761 -s 0 -d -1 -p tcp -e 1540 -c 2 -a 0 -i 40 -k AGT 
- -t 1.521057761 -s 0 -d -1 -p tcp -e 1540 -c 2 -a 0 -i 40 -k AGT
h -t 1.521057761 -s 0 -d -1 -p tcp -e 1540 -c 2 -a 0 -i 40 -k AGT
+ -t 1.521057761 -s 0 -d -1 -p tcp -e 1540 -c 2 -a 0 -i 41 -k AGT 
- -t 1.521057761 -s 0 -d -1 -p tcp -e 1540 -c 2 -a 0 -i 41 -k AGT
h -t 1.521057761 -s 0 -d -1 -p tcp -e 1540 -c 2 -a 0 -i 41 -k AGT
+ -t 1.521057761 -s 0 -d 3 -p tcp -e 1540 -c 2 -a 0 -i 40 -k RTR 
- -t 1.521057761 -s 0 -d 3 -p tcp -e 1540 -c 2 -a 0 -i 40 -k RTR
h -t 1.521057761 -s 0 -d 3 -p tcp -e 1540 -c 2 -a 0 -i 40 -k RTR
+ -t 1.521057761 -s 0 -d 3 -p tcp -e 1540 -c 2 -a 0 -i 41 -k RTR 
- -t 1.521057761 -s 0 -d 3 -p tcp -e 1540 -c 2 -a 0 -i 41 -k RTR
h -t 1.521057761 -s 0 -d 3 -p tcp -e 1540 -c 2 -a 0 -i 41 -k RTR
r -t 1.535103807 -s 4 -d 4 -p tcp -e 1540 -c 2 -a 0 -i 24 -k AGT
+ -t 1.535103807 -s 4 -d -1 -p ack -e 40 -c 2 -a 0 -i 42 -k AGT 
- -t 1.535103807 -s 4 -d -1 -p ack -e 40 -c 2 -a 0 -i 42 -k AGT
h -t 1.535103807 -s 4 -d -1 -p ack -e 40 -c 2 -a 0 -i 42 -k AGT
+ -t 1.535103807 -s 4 -d 3 -p ack -e 40 -c 2 -a 0 -i 42 -k RTR 
- -t 1.535103807 -s 4 -d 3 -p ack -e 40 -c 2 -a 0 -i 42 -k RTR
h -t 1.535103807 -s 4 -d 3 -p ack -e 40 -c 2 -a 0 -i 42 -k RTR
r -t 1.549090017 -s 4 -d 4 -p tcp -e 1540 -c 2 -a 0 -i 25 -k AGT
+ -t 1.549090017 -s 4 -d -1 -p ack -e 40 -c 2 -a 0 -i 43 -k AGT 
- -t 1.549090017 -s 4 -d -1 -p ack -e 40 -c 2 -a 0 -i 43 -k AGT
h -t 1.549090017 -s 4 -d -1 -p ack -e 40 -c 2 -a 0 -i 43 -k AGT
+ -t 1.549090017 -s 4 -d 3 -p ack -e 40 -c 2 -a 0 -i 43 -k RTR 
- -t 1.549090017 -s 4 -d 3 -p ack -e 40 -c 2 -a 0 -i 43 -k RTR
h -t 1.549090017 -s 4 -d 3 -p ack -e 40 -c 2 -a 0 -i 43 -k RTR
+ -t 1.550935674 -s 3 -d 0 -p ack -e 40 -c 2 -a 0 -i 42 -k RTR 
- -t 1.550935674 -s 3 -d 0 -p ack -e 40 -c 2 -a 0 -i 42 -k RTR
h -t 1.550935674 -s 3 -d 0 -p ack -e 40 -c 2 -a 0 -i 42 -k RTR
+ -t 1.565131230 -s 3 -d 4 -p tcp -e 1540 -c 2 -a 0 -i 32 -k RTR 
- -t 1.565131230 -s 3 -d 4 -p tcp -e 1540 -c 2 -a 0 -i 32 -k RTR
h -t 1.565131230 -s 3 -d 4 -p tcp -e 1540 -c 2 -a 0 -i 32 -k RTR
r -t 1.567016398 -s 0 -d 0 -p ack -e 40 -c 2 -a 0 -i 34 -k AGT
+ -t 1.567016398 -s 0 -d -1 -p tcp -e 1540 -c 2 -a 0 -i 44 -k AGT 
- -t 1.567016398 -s 0 -d -1 -p tcp -e 1540 -c 2 -a 0 -i 44 -k AGT
h -t 1.567016398 -s 0 -d -1 -p tcp -e 1540 -c 2 -a 0 -i 44 -k AGT
+ -t 1.567016398 -s 0 -d -1 -p tcp -e 1540 -c 2 -a 0 -i 45 -k AGT 
- -t 1.567016398 -s 0 -d -1 -p tcp -e 1540 -c 2 -a 0 -i 45 -k AGT
h -t 1.567016398 -s 0 -d -1 -p tcp -e 1540 -c 2 -a 0 -i 45 -k AGT
+ -t 1.567016398 -s 0 -d 3 -p tcp -e 1540 -c 2 -a 0 -i 44 -k RTR 
- -t 1.567016398 -s 0 -d 3 -p tcp -e 1540 -c 2 -a 0 -i 44 -k RTR
h -t 1.567016398 -s 0 -d 3 -p tcp -e 1540 -c 2 -a 0 -i 44 -k RTR
+ -t 1.567016398 -s 0 -d 3 -p tcp -e 1540 -c 2 -a 0 -i 45 -k RTR 
- -t 1.567016398 -s 0 -d 3 -p tcp -e 1540 -c 2 -a 0 -i 45 -k RTR
h -t 1.567016398 -s 0 -d 3 -p tcp -e 1540 -c 2 -a 0 -i 45 -k RTR
+ -t 1.580921565 -s 3 -d 4 -p tcp -e 1540 -c 2 -a 0 -i 33 -k RTR 
- -t 1.580921565 -s 3 -d 4 -p tcp -e 1540 -c 2 -a 0 -i 33 -k RTR
h -t 1.580921565 -s 3 -d 4 -p tcp -e 1540 -c 2 -a 0 -i 33 -k RTR
+ -t 1.582837774 -s 3 -d 0 -p ack -e 40 -c 2 -a 0 -i 43 -k RTR 
- -t 1.582837774 -s 3 -d 0 -p ack -e 40 -c 2 -a 0 -i 43 -k RTR
h -t 1.582837774 -s 3 -d 0 -p ack -e 40 -c 2 -a 0 -i 43 -k RTR
r -t 1.596683431 -s 4 -d 4 -p tcp -e 1540 -c 2 -a 0 -i 29 -k AGT
+ -t 1.596683431 -s 4 -d -1 -p ack -e 40 -c 2 -a 0 -i 46 -k AGT 
- -t 1.596683431 -s 4 -d -1 -p ack -e 40 -c 2 -a 0 -i 46 -k AGT
h -t 1.596683431 -s 4 -d -1 -p ack -e 40 -c 2 -a 0 -i 46 -k AGT
+ -t 1.596683431 -s 4 -d 3 -p ack -e 40 -c 2 -a 0 -i 46 -k RTR 
- -t 1.596683431 -s 4 -d 3 -p ack -e 40 -c 2 -a 0 -i 46 -k RTR
h -t 1.596683431 -s 4 -d 3 -p ack -e 40 -c 2 -a 0 -i 46 -k RTR
+ -t 1.598649089 -s 3 -d 0 -p ack -e 40 -c 2 -a 0 -i 46 -k RTR 
- -t 1.598649089 -s 3 -d 0 -p ack -e 40 -c 2 -a 0 -i 46 -k RTR
h -t 1.598649089 -s 3 -d 0 -p ack -e 40 -c 2 -a 0 -i 46 -k RTR
+ -t 1.612664643 -s 3 -d 4 -p tcp -e 1540 -c 2 -a 0 -i 35 -k RTR 
- -t 1.612664643 -s 3 -d 4 -p tcp -e 1540 -c 2 -a 0 -i 35 -k RTR
h -t 1.612664643 -s 3 -d 4 -p tcp -e 1540 -c 2 -a 0 -i 35 -k RTR
r -t 1.614529809 -s 0 -d 0 -p ack -e 40 -c 2 -a 0 -i 39 -k AGT
+ -t 1.614529809 -s 0 -d -1 -p tcp -e 1540 -c 2 -a 0 -i 47 -k AGT 
- -t 1.614529809 -s 0 -d -1 -p tcp -e 1540 -c 2 -a 0 -i 47 -k AGT