n -t * -s 0  -x 448 -y 758 -Z 0 -z 25  -v circle -c black
n -t * -s 1  -x 210 -y 35 -Z 0 -z 25  -v circle -c black
n -t * -s 2  -x 923 -y 57 -Z 0 -z 25  -v circle -c black
n -t * -s 3  -x 54 -y 902 -Z 0 -z 25  -v circle -c black
n -t * -s 4  -x 113 -y 33 -Z 0 -z 25  -v circle -c black
n -t * -s 5  -x 777 -y 331 -Z 0 -z 25  -v circle -c black
n -t * -s 6  -x 733 -y 649 -Z 0 -z 25  -v circle -c black
n -t * -s 7  -x 387 -y 166 -Z 0 -z 25  -v circle -c black
n -t * -s 8  -x 823 -y 141 -Z 0 -z 25  -v circle -c black
n -t * -s 9  -x 564 -y 241 -Z 0 -z 25  -v circle -c black
n -t * -s 10  -x 442 -y 451 -Z 0 -z 25  -v circle -c black
n -t * -s 11  -x 626 -y 619 -Z 0 -z 25  -v circle -c black
n -t * -s 12  -x 1006 -y 332 -Z 0 -z 25  -v circle -c black
n -t * -s 13  -x 714 -y 226 -Z 0 -z 25  -v circle -c black
n -t * -s 14  -x 630 -y 706 -Z 0 -z 25  -v circle -c black
n -t * -s 15  -x 433 -y 945 -Z 0 -z 25  -v circle -c black
n -t * -s 16  -x 216 -y 882 -Z 0 -z 25  -v circle -c black
n -t * -s 17  -x 333 -y 111 -Z 0 -z 25  -v circle -c black
n -t * -s 18  -x 700 -y 576 -Z 0 -z 25  -v circle -c black
n -t * -s 19  -x 888 -y 111 -Z 0 -z 25  -v circle -c black
V -t * -v 1.0a5 -a 0
W -t * -x 1000 -y 1000
A -t * -n 1 -p 0 -o 0x7fffffff -c 30 -a 1
A -t * -h 1 -m 1073741823 -s 0
+ -t 0.010000000 -s 0 -d -1 -p tcp -e 40 -c 2 -a 0 -i 0 -k AGT 
- -t 0.010000000 -s 0 -d -1 -p tcp -e 40 -c 2 -a 0 -i 0 -k AGT
h -t 0.010000000 -s 0 -d -1 -p tcp -e 40 -c 2 -a 0 -i 0 -k AGT
+ -t 0.010000000 -s 0 -d -1 -p AODV -e 48 -c 2 -a 0 -i 0 -k RTR 
- -t 0.010000000 -s 0 -d -1 -p AODV -e 48 -c 2 -a 0 -i 0 -k RTR
h -t 0.010000000 -s 0 -d -1 -p AODV -e 48 -c 2 -a 0 -i 0 -k RTR
r -t 0.010988625 -s 15 -d -1 -p AODV -e 48 -c 2 -a 0 -i 0 -k RTR
r -t 0.010988631 -s 14 -d -1 -p AODV -e 48 -c 2 -a 0 -i 0 -k RTR
r -t 0.010988753 -s 11 -d -1 -p AODV -e 48 -c 2 -a 0 -i 0 -k RTR
+ -t 0.011869852 -s 15 -d -1 -p AODV -e 48 -c 2 -a 0 -i 0 -k RTR 
- -t 0.011869852 -s 15 -d -1 -p AODV -e 48 -c 2 -a 0 -i 0 -k RTR
h -t 0.011869852 -s 15 -d -1 -p AODV -e 48 -c 2 -a 0 -i 0 -k RTR
r -t 0.012978477 -s 0 -d -1 -p AODV -e 48 -c 2 -a 0 -i 0 -k RTR
r -t 0.012978605 -s 16 -d -1 -p AODV -e 48 -c 2 -a 0 -i 0 -k RTR
+ -t 0.015324623 -s 16 -d -1 -p AODV -e 48 -c 2 -a 0 -i 0 -k RTR 
- -t 0.015324623 -s 16 -d -1 -p AODV -e 48 -c 2 -a 0 -i 0 -k RTR
h -t 0.015324623 -s 16 -d -1 -p AODV -e 48 -c 2 -a 0 -i 0 -k RTR
+ -t 0.015400365 -s 14 -d -1 -p AODV -e 48 -c 2 -a 0 -i 0 -k RTR 
- -t 0.015400365 -s 14 -d -1 -p AODV -e 48 -c 2 -a 0 -i 0 -k RTR
h -t 0.015400365 -s 14 -d -1 -p AODV -e 48 -c 2 -a 0 -i 0 -k RTR
r -t 0.016608655 -s 11 -d -1 -p AODV -e 48 -c 2 -a 0 -i 0 -k RTR
r -t 0.016608757 -s 6 -d -1 -p AODV -e 48 -c 2 -a 0 -i 0 -k RTR
r -t 0.016608857 -s 18 -d -1 -p AODV -e 48 -c 2 -a 0 -i 0 -k RTR
r -t 0.016608996 -s 0 -d -1 -p AODV -e 48 -c 2 -a 0 -i 0 -k RTR
+ -t 0.017036803 -s 18 -d -1 -p AODV -e 48 -c 2 -a 0 -i 0 -k RTR 
- -t 0.017036803 -s 18 -d -1 -p AODV -e 48 -c 2 -a 0 -i 0 -k RTR
h -t 0.017036803 -s 18 -d -1 -p AODV -e 48 -c 2 -a 0 -i 0 -k RTR
r -t 0.017912408 -s 3 -d -1 -p AODV -e 48 -c 2 -a 0 -i 0 -k RTR
r -t 0.017912617 -s 15 -d -1 -p AODV -e 48 -c 2 -a 0 -i 0 -k RTR
r -t 0.018145070 -s 6 -d -1 -p AODV -e 48 -c 2 -a 0 -i 0 -k RTR
+ -t 0.018250211 -s 6 -d -1 -p AODV -e 48 -c 2 -a 0 -i 0 -k RTR 
- -t 0.018250211 -s 6 -d -1 -p AODV -e 48 -c 2 -a 0 -i 0 -k RTR
h -t 0.018250211 -s 6 -d -1 -p AODV -e 48 -c 2 -a 0 -i 0 -k RTR
+ -t 0.018980307 -s 11 -d -1 -p AODV -e 48 -c 2 -a 0 -i 0 -k RTR 
- -t 0.018980307 -s 11 -d -1 -p AODV -e 48 -c 2 -a 0 -i 0 -k RTR
h -t 0.018980307 -s 11 -d -1 -p AODV -e 48 -c 2 -a 0 -i 0 -k RTR
r -t 0.019678478 -s 18 -d -1 -p AODV -e 48 -c 2 -a 0 -i 0 -k RTR
r -t 0.019678582 -s 11 -d -1 -p AODV -e 48 -c 2 -a 0 -i 0 -k RTR
r -t 0.019678604 -s 14 -d -1 -p AODV -e 48 -c 2 -a 0 -i 0 -k RTR
r -t 0.020916867 -s 18 -d -1 -p AODV -e 48 -c 2 -a 0 -i 0 -k RTR
r -t 0.020916872 -s 14 -d -1 -p AODV -e 48 -c 2 -a 0 -i 0 -k RTR
r -t 0.020916952 -s 6 -d -1 -p AODV -e 48 -c 2 -a 0 -i 0 -k RTR
r -t 0.020917334 -s 0 -d -1 -p AODV -e 48 -c 2 -a 0 -i 0 -k RTR
r -t 0.020917412 -s 10 -d -1 -p AODV -e 48 -c 2 -a 0 -i 0 -k RTR
+ -t 0.023498292 -s 10 -d -1 -p AODV -e 48 -c 2 -a 0 -i 0 -k RTR 
- -t 0.023498292 -s 10 -d -1 -p AODV -e 48 -c 2 -a 0 -i 0 -k RTR
h -t 0.023498292 -s 10 -d -1 -p AODV -e 48 -c 2 -a 0 -i 0 -k RTR
r -t 0.024467101 -s 9 -d -1 -p AODV -e 48 -c 2 -a 0 -i 0 -k RTR
r -t 0.024467122 -s 11 -d -1 -p AODV -e 48 -c 2 -a 0 -i 0 -k RTR
+ -t 0.026509685 -s 3 -d -1 -p AODV -e 48 -c 2 -a 0 -i 0 -k RTR 
- -t 0.026509685 -s 3 -d -1 -p AODV -e 48 -c 2 -a 0 -i 0 -k RTR
h -t 0.026509685 -s 3 -d -1 -p AODV -e 48 -c 2 -a 0 -i 0 -k RTR
r -t 0.027638229 -s 16 -d -1 -p AODV -e 48 -c 2 -a 0 -i 0 -k RTR
+ -t 0.029128261 -s 9 -d -1 -p AODV -e 48 -c 2 -a 0 -i 0 -k RTR 
- -t 0.029128261 -s 9 -d -1 -p AODV -e 48 -c 2 -a 0 -i 0 -k RTR
h -t 0.029128261 -s 9 -d -1 -p AODV -e 48 -c 2 -a 0 -i 0 -k RTR
r -t 0.030476763 -s 13 -d -1 -p AODV -e 48 -c 2 -a 0 -i 0 -k RTR
r -t 0.030476901 -s 7 -d -1 -p AODV -e 48 -c 2 -a 0 -i 0 -k RTR
r -t 0.030477031 -s 5 -d -1 -p AODV -e 48 -c 2 -a 0 -i 0 -k RTR
r -t 0.030477070 -s 10 -d -1 -p AODV -e 48 -c 2 -a 0 -i 0 -k RTR
+ -t 0.032889019 -s 13 -d -1 -p AODV -e 48 -c 2 -a 0 -i 0 -k RTR 
- -t 0.032889019 -s 13 -d -1 -p AODV -e 48 -c 2 -a 0 -i 0 -k RTR
h -t 0.032889019 -s 13 -d -1 -p AODV -e 48 -c 2 -a 0 -i 0 -k RTR
r -t 0.034197428 -s 5 -d -1 -p AODV -e 48 -c 2 -a 0 -i 0 -k RTR
r -t 0.034197480 -s 8 -d -1 -p AODV -e 48 -c 2 -a 0 -i 0 -k RTR
r -t 0.034197522 -s 9 -d -1 -p AODV -e 48 -c 2 -a 0 -i 0 -k RTR
r -t 0.034197715 -s 19 -d -1 -p AODV -e 48 -c 2 -a 0 -i 0 -k RTR
+ -t 0.035289699 -s 19 -d -1 -p AODV -e 48 -c 2 -a 0 -i 0 -k RTR 
- -t 0.035289699 -s 19 -d -1 -p AODV -e 48 -c 2 -a 0 -i 0 -k RTR
h -t 0.035289699 -s 19 -d -1 -p AODV -e 48 -c 2 -a 0 -i 0 -k RTR
r -t 0.036437914 -s 2 -d -1 -p AODV -e 48 -c 2 -a 0 -i 0 -k RTR
r -t 0.036437938 -s 8 -d -1 -p AODV -e 48 -c 2 -a 0 -i 0 -k RTR
r -t 0.036438395 -s 13 -d -1 -p AODV -e 48 -c 2 -a 0 -i 0 -k RTR
r -t 0.036438521 -s 5 -d -1 -p AODV -e 48 -c 2 -a 0 -i 0 -k RTR
+ -t 0.037250521 -s 5 -d -1 -p AODV -e 48 -c 2 -a 0 -i 0 -k RTR 
- -t 0.037250521 -s 5 -d -1 -p AODV -e 48 -c 2 -a 0 -i 0 -k RTR
h -t 0.037250521 -s 5 -d -1 -p AODV -e 48 -c 2 -a 0 -i 0 -k RTR
+ -t 0.038252671 -s 8 -d -1 -p AODV -e 48 -c 2 -a 0 -i 0 -k RTR 
- -t 0.038252671 -s 8 -d -1 -p AODV -e 48 -c 2 -a 0 -i 0 -k RTR
h -t 0.038252671 -s 8 -d -1 -p AODV -e 48 -c 2 -a 0 -i 0 -k RTR
r -t 0.038418929 -s 13 -d -1 -p AODV -e 48 -c 2 -a 0 -i 0 -k RTR
r -t 0.038419172 -s 8 -d -1 -p AODV -e 48 -c 2 -a 0 -i 0 -k RTR
r -t 0.038419284 -s 12 -d -1 -p AODV -e 48 -c 2 -a 0 -i 0 -k RTR
r -t 0.038419292 -s 9 -d -1 -p AODV -e 48 -c 2 -a 0 -i 0 -k RTR
r -t 0.038419342 -s 19 -d -1 -p AODV -e 48 -c 2 -a 0 -i 0 -k RTR
+ -t 0.038987967 -s 7 -d -1 -p AODV -e 48 -c 2 -a 0 -i 0 -k RTR 
- -t 0.038987967 -s 7 -d -1 -p AODV -e 48 -c 2 -a 0 -i 0 -k RTR
h -t 0.038987967 -s 7 -d -1 -p AODV -e 48 -c 2 -a 0 -i 0 -k RTR
+ -t 0.039003310 -s 12 -d -1 -p AODV -e 48 -c 2 -a 0 -i 0 -k RTR 
- -t 0.039003310 -s 12 -d -1 -p AODV -e 48 -c 2 -a 0 -i 0 -k RTR
h -t 0.039003310 -s 12 -d -1 -p AODV -e 48 -c 2 -a 0 -i 0 -k RTR
r -t 0.039517411 -s 19 -d -1 -p AODV -e 48 -c 2 -a 0 -i 0 -k RTR
r -t 0.039517608 -s 2 -d -1 -p AODV -e 48 -c 2 -a 0 -i 0 -k RTR
r -t 0.039517633 -s 13 -d -1 -p AODV -e 48 -c 2 -a 0 -i 0 -k RTR
r -t 0.039517824 -s 5 -d -1 -p AODV -e 48 -c 2 -a 0 -i 0 -k RTR
r -t 0.040900885 -s 17 -d -1 -p AODV -e 48 -c 2 -a 0 -i 0 -k RTR
r -t 0.040901269 -s 9 -d -1 -p AODV -e 48 -c 2 -a 0 -i 0 -k RTR
r -t 0.040901362 -s 1 -d -1 -p AODV -e 48 -c 2 -a 0 -i 0 -k RTR
+ -t 0.043471300 -s 1 -d -1 -p AODV -e 48 -c 2 -a 0 -i 0 -k RTR 
- -t 0.043471300 -s 1 -d -1 -p AODV -e 48 -c 2 -a 0 -i 0 -k RTR
h -t 0.043471300 -s 1 -d -1 -p AODV -e 48 -c 2 -a 0 -i 0 -k RTR
r -t 0.044419623 -s 4 -d -1 -p AODV -e 48 -c 2 -a 0 -i 0 -k RTR
+ -t 0.044419623 -s 4 -d 1 -p AODV -e 44 -c 2 -a 0 -i 0 -k RTR 
- -t 0.044419623 -s 4 -d 1 -p AODV -e 44 -c 2 -a 0 -i 0 -k RTR
h -t 0.044419623 -s 4 -d 1 -p AODV -e 44 -c 2 -a 0 -i 0 -k RTR
r -t 0.044419782 -s 17 -d -1 -p AODV -e 48 -c 2 -a 0 -i 0 -k RTR
r -t 0.044420034 -s 7 -d -1 -p AODV -e 48 -c 2 -a 0 -i 0 -k RTR
+ -t 0.045312349 -s 2 -d -1 -p AODV -e 48 -c 2 -a 0 -i 0 -k RTR 
- -t 0.045312349 -s 2 -d -1 -p AODV -e 48 -c 2 -a 0 -i 0 -k RTR
h -t 0.045312349 -s 2 -d -1 -p AODV -e 48 -c 2 -a 0 -i 0 -k RTR
r -t 0.046420564 -s 19 -d -1 -p AODV -e 48 -c 2 -a 0 -i 0 -k RTR
r -t 0.046420785 -s 8 -d -1 -p AODV -e 48 -c 2 -a 0 -i 0 -k RTR
+ -t 0.047587124 -s 17 -d -1 -p AODV -e 48 -c 2 -a 0 -i 0 -k RTR 
- -t 0.047587124 -s 17 -d -1 -p AODV -e 48 -c 2 -a 0 -i 0 -k RTR
h -t 0.047587124 -s 17 -d -1 -p AODV -e 48 -c 2 -a 0 -i 0 -k RTR
+ -t 0.049004887 -s 1 -d 7 -p AODV -e 44 -c 2 -a 0 -i 0 -k RTR 
- -t 0.049004887 -s 1 -d 7 -p AODV -e 44 -c 2 -a 0 -i 0 -k RTR
h -t 0.049004887 -s 1 -d 7 -p AODV -e 44 -c 2 -a 0 -i 0 -k RTR
r -t 0.050457626 -s 7 -d -1 -p AODV -e 48 -c 2 -a 0 -i 0 -k RTR
r -t 0.050457851 -s 1 -d -1 -p AODV -e 48 -c 2 -a 0 -i 0 -k RTR
r -t 0.050458147 -s 4 -d -1 -p AODV -e 48 -c 2 -a 0 -i 0 -k RTR
+ -t 0.055015989 -s 7 -d 9 -p AODV -e 44 -c 2 -a 0 -i 0 -k RTR 
- -t 0.055015989 -s 7 -d 9 -p AODV -e 44 -c 2 -a 0 -i 0 -k RTR
h -t 0.055015989 -s 7 -d 9 -p AODV -e 44 -c 2 -a 0 -i 0 -k RTR
+ -t 0.060107474 -s 9 -d 10 -p AODV -e 44 -c 2 -a 0 -i 0 -k RTR 
- -t 0.060107474 -s 9 -d 10 -p AODV -e 44 -c 2 -a 0 -i 0 -k RTR
h -t 0.060107474 -s 9 -d 10 -p AODV -e 44 -c 2 -a 0 -i 0 -k RTR
+ -t 0.064800141 -s 10 -d 11 -p AODV -e 44 -c 2 -a 0 -i 0 -k RTR 
- -t 0.064800141 -s 10 -d 11 -p AODV -e 44 -c 2 -a 0 -i 0 -k RTR
h -t 0.064800141 -s 10 -d 11 -p AODV -e 44 -c 2 -a 0 -i 0 -k RTR
+ -t 0.069592955 -s 11 -d 0 -p AODV -e 44 -c 2 -a 0 -i 0 -k RTR 
- -t 0.069592955 -s 11 -d 0 -p AODV -e 44 -c 2 -a 0 -i 0 -k RTR
h -t 0.069592955 -s 11 -d 0 -p AODV -e 44 -c 2 -a 0 -i 0 -k RTR
+ -t 0.075045224 -s 0 -d 11 -p tcp -e 40 -c 2 -a 0 -i 0 -k RTR 
- -t 0.075045224 -s 0 -d 11 -p tcp -e 40 -c 2 -a 0 -i 0 -k RTR
h -t 0.075045224 -s 0 -d 11 -p tcp -e 40 -c 2 -a 0 -i 0 -k RTR
+ -t 0.077251483 -s 11 -d 10 -p tcp -e 40 -c 2 -a 0 -i 0 -k RTR 
- -t 0.077251483 -s 11 -d 10 -p tcp -e 40 -c 2 -a 0 -i 0 -k RTR
h -t 0.077251483 -s 11 -d 10 -p tcp -e 40 -c 2 -a 0 -i 0 -k RTR
+ -t 0.079377975 -s 10 -d 9 -p tcp -e 40 -c 2 -a 0 -i 0 -k RTR 
- -t 0.079377975 -s 10 -d 9 -p tcp -e 40 -c 2 -a 0 -i 0 -k RTR
h -t 0.079377975 -s 10 -d 9 -p tcp -e 40 -c 2 -a 0 -i 0 -k RTR
+ -t 0.081544403 -s 9 -d 7 -p tcp -e 40 -c 2 -a 0 -i 0 -k RTR 
- -t 0.081544403 -s 9 -d 7 -p tcp -e 40 -c 2 -a 0 -i 0 -k RTR
h -t 0.081544403 -s 9 -d 7 -p tcp -e 40 -c 2 -a 0 -i 0 -k RTR
+ -t 0.083950326 -s 7 -d 1 -p tcp -e 40 -c 2 -a 0 -i 0 -k RTR 
- -t 0.083950326 -s 7 -d 1 -p tcp -e 40 -c 2 -a 0 -i 0 -k RTR
h -t 0.083950326 -s 7 -d 1 -p tcp -e 40 -c 2 -a 0 -i 0 -k RTR
+ -t 0.085956528 -s 1 -d 4 -p tcp -e 40 -c 2 -a 0 -i 0 -k RTR 
- -t 0.085956528 -s 1 -d 4 -p tcp -e 40 -c 2 -a 0 -i 0 -k RTR
h -t 0.085956528 -s 1 -d 4 -p tcp -e 40 -c 2 -a 0 -i 0 -k RTR
r -t 0.088221498 -s 4 -d 4 -p tcp -e 40 -c 2 -a 0 -i 0 -k AGT
+ -t 0.088221498 -s 4 -d -1 -p ack -e 40 -c 2 -a 0 -i 1 -k AGT 
- -t 0.088221498 -s 4 -d -1 -p ack -e 40 -c 2 -a 0 -i 1 -k AGT
h -t 0.088221498 -s 4 -d -1 -p ack -e 40 -c 2 -a 0 -i 1 -k AGT
+ -t 0.088221498 -s 4 -d 1 -p ack -e 40 -c 2 -a 0 -i 1 -k RTR 
- -t 0.088221498 -s 4 -d 1 -p ack -e 40 -c 2 -a 0 -i 1 -k RTR
h -t 0.088221498 -s 4 -d 1 -p ack -e 40 -c 2 -a 0 -i 1 -k RTR
+ -t 0.090166468 -s 1 -d 7 -p ack -e 40 -c 2 -a 0 -i 1 -k RTR 
- -t 0.090166468 -s 1 -d 7 -p ack -e 40 -c 2 -a 0 -i 1 -k RTR
h -t 0.090166468 -s 1 -d 7 -p ack -e 40 -c 2 -a 0 -i 1 -k RTR
+ -t 0.092032670 -s 7 -d 9 -p ack -e 40 -c 2 -a 0 -i 1 -k RTR 
- -t 0.092032670 -s 7 -d 9 -p ack -e 40 -c 2 -a 0 -i 1 -k RTR
h -t 0.092032670 -s 7 -d 9 -p ack -e 40 -c 2 -a 0 -i 1 -k RTR
+ -t 0.093858592 -s 9 -d 10 -p ack -e 40 -c 2 -a 0 -i 1 -k RTR 
- -t 0.093858592 -s 9 -d 10 -p ack -e 40 -c 2 -a 0 -i 1 -k RTR
h -t 0.093858592 -s 9 -d 10 -p ack -e 40 -c 2 -a 0 -i 1 -k RTR
+ -t 0.096045021 -s 10 -d 11 -p ack -e 40 -c 2 -a 0 -i 1 -k RTR 
- -t 0.096045021 -s 10 -d 11 -p ack -e 40 -c 2 -a 0 -i 1 -k RTR
h -t 0.096045021 -s 10 -d 11 -p ack -e 40 -c 2 -a 0 -i 1 -k RTR
+ -t 0.098291513 -s 11 -d 0 -p ack -e 40 -c 2 -a 0 -i 1 -k RTR 
- -t 0.098291513 -s 11 -d 0 -p ack -e 40 -c 2 -a 0 -i 1 -k RTR
h -t 0.098291513 -s 11 -d 0 -p ack -e 40 -c 2 -a 0 -i 1 -k RTR
r -t 0.100437771 -s 0 -d 0 -p ack -e 40 -c 2 -a 0 -i 1 -k AGT
+ -t 0.100437771 -s 0 -d -1 -p tcp -e 1540 -c 2 -a 0 -i 2 -k AGT 
- -t 0.100437771 -s 0 -d -1 -p tcp -e 1540 -c 2 -a 0 -i 2 -k AGT
h -t 0.100437771 -s 0 -d -1 -p tcp -e 1540 -c 2 -a 0 -i 2 -k AGT
+ -t 0.100437771 -s 0 -d -1 -p tcp -e 1540 -c 2 -a 0 -i 3 -k AGT 
- -t 0.100437771 -s 0 -d -1 -p tcp -e 1540 -c 2 -a 0 -i 3 -k AGT
h -t 0.100437771 -s 0 -d -1 -p tcp -e 1540 -c 2 -a 0 -i 3 -k AGT
+ -t 0.100437771 -s 0 -d 11 -p tcp -e 1540 -c 2 -a 0 -i 2 -k RTR 
- -t 0.100437771 -s 0 -d 11 -p tcp -e 1540 -c 2 -a 0 -i 2 -k RTR
h -t 0.100437771 -s 0 -d 11 -p tcp -e 1540 -c 2 -a 0 -i 2 -k RTR
+ -t 0.100437771 -s 0 -d 11 -p tcp -e 1540 -c 2 -a 0 -i 3 -k RTR 
- -t 0.100437771 -s 0 -d 11 -p tcp -e 1540 -c 2 -a 0 -i 3 -k RTR
h -t 0.100437771 -s 0 -d 11 -p tcp -e 1540 -c 2 -a 0 -i 3 -k RTR
+ -t 0.114284029 -s 11 -d 10 -p tcp -e 1540 -c 2 -a 0 -i 2 -k RTR 
- -t 0.114284029 -s 11 -d 10 -p tcp -e 1540 -c 2 -a 0 -i 2 -k RTR
h -t 0.114284029 -s 11 -d 10 -p tcp -e 1540 -c 2 -a 0 -i 2 -k RTR
+ -t 0.128211041 -s 11 -d 10 -p tcp -e 1540 -c 2 -a 0 -i 3 -k RTR 
- -t 0.128211041 -s 11 -d 10 -p tcp -e 1540 -c 2 -a 0 -i 3 -k RTR
h -t 0.128211041 -s 11 -d 10 -p tcp -e 1540 -c 2 -a 0 -i 3 -k RTR
+ -t 0.142177532 -s 10 -d 9 -p tcp -e 1540 -c 2 -a 0 -i 2 -k RTR 
- -t 0.142177532 -s 10 -d 9 -p tcp -e 1540 -c 2 -a 0 -i 2 -k RTR
h -t 0.142177532 -s 10 -d 9 -p tcp -e 1540 -c 2 -a 0 -i 2 -k RTR
+ -t 0.156063961 -s 9 -d 7 -p tcp -e 1540 -c 2 -a 0 -i 2 -k RTR 
- -t 0.156063961 -s 9 -d 7 -p tcp -e 1540 -c 2 -a 0 -i 2 -k RTR
h -t 0.156063961 -s 9 -d 7 -p tcp -e 1540 -c 2 -a 0 -i 2 -k RTR
+ -t 0.169969883 -s 7 -d 1 -p tcp -e 1540 -c 2 -a 0 -i 2 -k RTR 
- -t 0.169969883 -s 7 -d 1 -p tcp -e 1540 -c 2 -a 0 -i 2 -k RTR
h -t 0.169969883 -s 7 -d 1 -p tcp -e 1540 -c 2 -a 0 -i 2 -k RTR
+ -t 0.184216085 -s 1 -d 4 -p tcp -e 1540 -c 2 -a 0 -i 2 -k RTR 
- -t 0.184216085 -s 1 -d 4 -p tcp -e 1540 -c 2 -a 0 -i 2 -k RTR
h -t 0.184216085 -s 1 -d 4 -p tcp -e 1540 -c 2 -a 0 -i 2 -k RTR
r -t 0.198061056 -s 4 -d 4 -p tcp -e 1540 -c 2 -a 0 -i 2 -k AGT
+ -t 0.198061056 -s 4 -d -1 -p ack -e 40 -c 2 -a 0 -i 4 -k AGT 
- -t 0.198061056 -s 4 -d -1 -p ack -e 40 -c 2 -a 0 -i 4 -k AGT
h -t 0.198061056 -s 4 -d -1 -p ack -e 40 -c 2 -a 0 -i 4 -k AGT
+ -t 0.198061056 -s 4 -d 1 -p ack -e 40 -c 2 -a 0 -i 4 -k RTR 
- -t 0.198061056 -s 4 -d 1 -p ack -e 40 -c 2 -a 0 -i 4 -k RTR
h -t 0.198061056 -s 4 -d 1 -p ack -e 40 -c 2 -a 0 -i 4 -k RTR
+ -t 0.200326026 -s 1 -d 7 -p ack -e 40 -c 2 -a 0 -i 4 -k RTR 
- -t 0.200326026 -s 1 -d 7 -p ack -e 40 -c 2 -a 0 -i 4 -k RTR
h -t 0.200326026 -s 1 -d 7 -p ack -e 40 -c 2 -a 0 -i 4 -k RTR
+ -t 0.204352228 -s 7 -d 9 -p ack -e 40 -c 2 -a 0 -i 4 -k RTR 
- -t 0.204352228 -s 7 -d 9 -p ack -e 40 -c 2 -a 0 -i 4 -k RTR
h -t 0.204352228 -s 7 -d 9 -p ack -e 40 -c 2 -a 0 -i 4 -k RTR
+ -t 0.206358150 -s 9 -d 10 -p ack -e 40 -c 2 -a 0 -i 4 -k RTR 
- -t 0.206358150 -s 9 -d 10 -p ack -e 40 -c 2 -a 0 -i 4 -k RTR
h -t 0.206358150 -s 9 -d 10 -p ack -e 40 -c 2 -a 0 -i 4 -k RTR
+ -t 0.208424579 -s 10 -d 11 -p ack -e 40 -c 2 -a 0 -i 4 -k RTR 
- -t 0.208424579 -s 10 -d 11 -p ack -e 40 -c 2 -a 0 -i 4 -k RTR
h -t 0.208424579 -s 10 -d 11 -p ack -e 40 -c 2 -a 0 -i 4 -k RTR
+ -t 0.210351070 -s 11 -d 0 -p ack -e 40 -c 2 -a 0 -i 4 -k RTR 
- -t 0.210351070 -s 11 -d 0 -p ack -e 40 -c 2 -a 0 -i 4 -k RTR
h -t 0.210351070 -s 11 -d 0 -p ack -e 40 -c 2 -a 0 -i 4 -k RTR
+ -t 0.228717562 -s 10 -d 9 -p tcp -e 1540 -c 2 -a 0 -i 3 -k RTR 
- -t 0.228717562 -s 10 -d 9 -p tcp -e 1540 -c 2 -a 0 -i 3 -k RTR
h -t 0.228717562 -s 10 -d 9 -p tcp -e 1540 -c 2 -a 0 -i 3 -k RTR
+ -t 0.243103991 -s 9 -d 7 -p tcp -e 1540 -c 2 -a 0 -i 3 -k RTR 
- -t 0.243103991 -s 9 -d 7 -p tcp -e 1540 -c 2 -a 0 -i 3 -k RTR
h -t 0.243103991 -s 9 -d 7 -p tcp -e 1540 -c 2 -a 0 -i 3 -k RTR
r -t 0.245315526 -s 0 -d 0 -p ack -e 40 -c 2 -a 0 -i 4 -k AGT
+ -t 0.245315526 -s 0 -d -1 -p tcp -e 1540 -c 2 -a 0 -i 5 -k AGT 
- -t 0.245315526 -s 0 -d -1 -p tcp -e 1540 -c 2 -a 0 -i 5 -k AGT
h -t 0.245315526 -s 0 -d -1 -p tcp -e 1540 -c 2 -a 0 -i 5 -k AGT
+ -t 0.245315526 -s 0 -d -1 -p tcp -e 1540 -c 2 -a 0 -i 6 -k AGT 
- -t 0.245315526 -s 0 -d -1 -p tcp -e 1540 -c 2 -a 0 -i 6 -k AGT
h -t 0.245315526 -s 0 -d -1 -p tcp -e 1540 -c 2 -a 0 -i 6 -k AGT
+ -t 0.245315526 -s 0 -d 11 -p tcp -e 1540 -c 2 -a 0 -i 5 -k RTR 
- -t 0.245315526 -s 0 -d 11 -p tcp -e 1540 -c 2 -a 0 -i 5 -k RTR
h -t 0.245315526 -s 0 -d 11 -p tcp -e 1540 -c 2 -a 0 -i 5 -k RTR
+ -t 0.245315526 -s 0 -d 11 -p tcp -e 1540 -c 2 -a 0 -i 6 -k RTR 
- -t 0.245315526 -s 0 -d 11 -p tcp -e 1540 -c 2 -a 0 -i 6 -k RTR
h -t 0.245315526 -s 0 -d 11 -p tcp -e 1540 -c 2 -a 0 -i 6 -k RTR
+ -t 0.259661784 -s 11 -d 10 -p tcp -e 1540 -c 2 -a 0 -i 5 -k RTR 
- -t 0.259661784 -s 11 -d 10 -p tcp -e 1540 -c 2 -a 0 -i 5 -k RTR
h -t 0.259661784 -s 11 -d 10 -p tcp -e 1540 -c 2 -a 0 -i 5 -k RTR
+ -t 0.273728276 -s 10 -d 9 -p tcp -e 1540 -c 2 -a 0 -i 5 -k RTR 
- -t 0.273728276 -s 10 -d 9 -p tcp -e 1540 -c 2 -a 0 -i 5 -k RTR
h -t 0.273728276 -s 10 -d 9 -p tcp -e 1540 -c 2 -a 0 -i 5 -k RTR
+ -t 0.287654705 -s 9 -d 7 -p tcp -e 1540 -c 2 -a 0 -i 5 -k RTR 
- -t 0.287654705 -s 9 -d 7 -p tcp -e 1540 -c 2 -a 0 -i 5 -k RTR
h -t 0.287654705 -s 9 -d 7 -p tcp -e 1540 -c 2 -a 0 -i 5 -k RTR
+ -t 0.301500627 -s 7 -d 1 -p tcp -e 1540 -c 2 -a 0 -i 3 -k RTR 
- -t 0.301500627 -s 7 -d 1 -p tcp -e 1540 -c 2 -a 0 -i 3 -k RTR
h -t 0.301500627 -s 7 -d 1 -p tcp -e 1540 -c 2 -a 0 -i 3 -k RTR
+ -t 0.315706829 -s 1 -d 4 -p tcp -e 1540 -c 2 -a 0 -i 3 -k RTR 
- -t 0.315706829 -s 1 -d 4 -p tcp -e 1540 -c 2 -a 0 -i 3 -k RTR
h -t 0.315706829 -s 1 -d 4 -p tcp -e 1540 -c 2 -a 0 -i 3 -k RTR
r -t 0.329691799 -s 4 -d 4 -p tcp -e 1540 -c 2 -a 0 -i 3 -k AGT
+ -t 0.329691799 -s 4 -d -1 -p ack -e 40 -c 2 -a 0 -i 7 -k AGT 
- -t 0.329691799 -s 4 -d -1 -p ack -e 40 -c 2 -a 0 -i 7 -k AGT
h -t 0.329691799 -s 4 -d -1 -p ack -e 40 -c 2 -a 0 -i 7 -k AGT
+ -t 0.329691799 -s 4 -d 1 -p ack -e 40 -c 2 -a 0 -i 7 -k RTR 
- -t 0.329691799 -s 4 -d 1 -p ack -e 40 -c 2 -a 0 -i 7 -k RTR
h -t 0.329691799 -s 4 -d 1 -p ack -e 40 -c 2 -a 0 -i 7 -k RTR
+ -t 0.332116769 -s 1 -d 7 -p ack -e 40 -c 2 -a 0 -i 7 -k RTR 
- -t 0.332116769 -s 1 -d 7 -p ack -e 40 -c 2 -a 0 -i 7 -k RTR
h -t 0.332116769 -s 1 -d 7 -p ack -e 40 -c 2 -a 0 -i 7 -k RTR
+ -t 0.332638011 -s 11 -d 10 -p tcp -e 1540 -c 2 -a 0 -i 6 -k RTR 
- -t 0.332638011 -s 11 -d 10 -p tcp -e 1540 -c 2 -a 0 -i 6 -k RTR
h -t 0.332638011 -s 11 -d 10 -p tcp -e 1540 -c 2 -a 0 -i 6 -k RTR
+ -t 0.347224502 -s 10 -d 9 -p tcp -e 1540 -c 2 -a 0 -i 6 -k RTR 
- -t 0.347224502 -s 10 -d 9 -p tcp -e 1540 -c 2 -a 0 -i 6 -k RTR
h -t 0.347224502 -s 10 -d 9 -p tcp -e 1540 -c 2 -a 0 -i 6 -k RTR
+ -t 0.361280871 -s 7 -d 1 -p tcp -e 1540 -c 2 -a 0 -i 5 -k RTR 
- -t 0.361280871 -s 7 -d 1 -p tcp -e 1540 -c 2 -a 0 -i 5 -k RTR
h -t 0.361280871 -s 7 -d 1 -p tcp -e 1540 -c 2 -a 0 -i 5 -k RTR
+ -t 0.375147073 -s 1 -d 4 -p tcp -e 1540 -c 2 -a 0 -i 5 -k RTR 
- -t 0.375147073 -s 1 -d 4 -p tcp -e 1540 -c 2 -a 0 -i 5 -k RTR
h -t 0.375147073 -s 1 -d 4 -p tcp -e 1540 -c 2 -a 0 -i 5 -k RTR
+ -t 0.389439089 -s 9 -d 7 -p tcp -e 1540 -c 2 -a 0 -i 6 -k RTR 
- -t 0.389439089 -s 9 -d 7 -p tcp -e 1540 -c 2 -a 0 -i 6 -k RTR
h -t 0.389439089 -s 9 -d 7 -p tcp -e 1540 -c 2 -a 0 -i 6 -k RTR
+ -t 0.403765012 -s 7 -d 1 -p tcp -e 1540 -c 2 -a 0 -i 6 -k RTR 
- -t 0.403765012 -s 7 -d 1 -p tcp -e 1540 -c 2 -a 0 -i 6 -k RTR
h -t 0.403765012 -s 7 -d 1 -p tcp -e 1540 -c 2 -a 0 -i 6 -k RTR
+ -t 0.405801938 -s 7 -d 9 -p ack -e 40 -c 2 -a 0 -i 7 -k RTR 
- -t 0.405801938 -s 7 -d 9 -p ack -e 40 -c 2 -a 0 -i 7 -k RTR
h -t 0.405801938 -s 7 -d 9 -p ack -e 40 -c 2 -a 0 -i 7 -k RTR
+ -t 0.420028140 -s 1 -d 4 -p tcp -e 1540 -c 2 -a 0 -i 6 -k RTR 
- -t 0.420028140 -s 1 -d 4 -p tcp -e 1540 -c 2 -a 0 -i 6 -k RTR
h -t 0.420028140 -s 1 -d 4 -p tcp -e 1540 -c 2 -a 0 -i 6 -k RTR
r -t 0.434013111 -s 4 -d 4 -p tcp -e 1540 -c 2 -a 0 -i 5 -k AGT
+ -t 0.434013111 -s 4 -d -1 -p ack -e 40 -c 2 -a 0 -i 8 -k AGT 
- -t 0.434013111 -s 4 -d -1 -p ack -e 40 -c 2 -a 0 -i 8 -k AGT
h -t 0.434013111 -s 4 -d -1 -p ack -e 40 -c 2 -a 0 -i 8 -k AGT
+ -t 0.434013111 -s 4 -d 1 -p ack -e 40 -c 2 -a 0 -i 8 -k RTR 
- -t 0.434013111 -s 4 -d 1 -p ack -e 40 -c 2 -a 0 -i 8 -k RTR
h -t 0.434013111 -s 4 -d 1 -p ack -e 40 -c 2 -a 0 -i 8 -k RTR
r -t 0.447898404 -s 4 -d 4 -p tcp -e 1540 -c 2 -a 0 -i 6 -k AGT
+ -t 0.447898404 -s 4 -d -1 -p ack -e 40 -c 2 -a 0 -i 9 -k AGT 
- -t 0.447898404 -s 4 -d -1 -p ack -e 40 -c 2 -a 0 -i 9 -k AGT
h -t 0.447898404 -s 4 -d -1 -p ack -e 40 -c 2 -a 0 -i 9 -k AGT
+ -t 0.447898404 -s 4 -d 1 -p ack -e 40 -c 2 -a 0 -i 9 -k RTR 
- -t 0.447898404 -s 4 -d 1 -p ack -e 40 -c 2 -a 0 -i 9 -k RTR
h -t 0.447898404 -s 4 -d 1 -p ack -e 40 -c 2 -a 0 -i 9 -k RTR
+ -t 0.450043374 -s 1 -d 7 -p ack -e 40 -c 2 -a 0 -i 8 -k RTR 
- -t 0.450043374 -s 1 -d 7 -p ack -e 40 -c 2 -a 0 -i 8 -k RTR
h -t 0.450043374 -s 1 -d 7 -p ack -e 40 -c 2 -a 0 -i 8 -k RTR
+ -t 0.451988668 -s 1 -d 7 -p ack -e 40 -c 2 -a 0 -i 9 -k RTR 
- -t 0.451988668 -s 1 -d 7 -p ack -e 40 -c 2 -a 0 -i 9 -k RTR
h -t 0.451988668 -s 1 -d 7 -p ack -e 40 -c 2 -a 0 -i 9 -k RTR
+ -t 0.453985282 -s 9 -d 10 -p ack -e 40 -c 2 -a 0 -i 7 -k RTR 
- -t 0.453985282 -s 9 -d 10 -p ack -e 40 -c 2 -a 0 -i 7 -k RTR
h -t 0.453985282 -s 9 -d 10 -p ack -e 40 -c 2 -a 0 -i 7 -k RTR
+ -t 0.455831711 -s 10 -d 11 -p ack -e 40 -c 2 -a 0 -i 7 -k RTR 
- -t 0.455831711 -s 10 -d 11 -p ack -e 40 -c 2 -a 0 -i 7 -k RTR
h -t 0.455831711 -s 10 -d 11 -p ack -e 40 -c 2 -a 0 -i 7 -k RTR
+ -t 0.457738202 -s 11 -d 0 -p ack -e 40 -c 2 -a 0 -i 7 -k RTR 
- -t 0.457738202 -s 11 -d 0 -p ack -e 40 -c 2 -a 0 -i 7 -k RTR
h -t 0.457738202 -s 11 -d 0 -p ack -e 40 -c 2 -a 0 -i 7 -k RTR
r -t 0.460024461 -s 0 -d 0 -p ack -e 40 -c 2 -a 0 -i 7 -k AGT
+ -t 0.460024461 -s 0 -d -1 -p tcp -e 1540 -c 2 -a 0 -i 10 -k AGT 
- -t 0.460024461 -s 0 -d -1 -p tcp -e 1540 -c 2 -a 0 -i 10 -k AGT
h -t 0.460024461 -s 0 -d -1 -p tcp -e 1540 -c 2 -a 0 -i 10 -k AGT
+ -t 0.460024461 -s 0 -d -1 -p tcp -e 1540 -c 2 -a 0 -i 11 -k AGT 
- -t 0.460024461 -s 0 -d -1 -p tcp -e 1540 -c 2 -a 0 -i 11 -k AGT
h -t 0.460024461 -s 0 -d -1 -p tcp -e 1540 -c 2 -a 0 -i 11 -k AGT
+ -t 0.460024461 -s 0 -d 11 -p tcp -e 1540 -c 2 -a 0 -i 10 -k RTR 
- -t 0.460024461 -s 0 -d 11 -p tcp -e 1540 -c 2 -a 0 -i 10 -k RTR
h -t 0.460024461 -s 0 -d 11 -p tcp -e 1540 -c 2 -a 0 -i 10 -k RTR
+ -t 0.460024461 -s 0 -d 11 -p tcp -e 1540 -c 2 -a 0 -i 11 -k RTR 
- -t 0.460024461 -s 0 -d 11 -p tcp -e 1540 -c 2 -a 0 -i 11 -k RTR
h -t 0.460024461 -s 0 -d 11 -p tcp -e 1540 -c 2 -a 0 -i 11 -k RTR
+ -t 0.466215162 -s 7 -d 9 -p ack -e 40 -c 2 -a 0 -i 8 -k RTR 
- -t 0.466215162 -s 7 -d 9 -p ack -e 40 -c 2 -a 0 -i 8 -k RTR
h -t 0.466215162 -s 7 -d 9 -p ack -e 40 -c 2 -a 0 -i 8 -k RTR
+ -t 0.471466098 -s 7 -d 9 -p ack -e 40 -c 2 -a 0 -i 9 -k RTR 
- -t 0.471466098 -s 7 -d 9 -p ack -e 40 -c 2 -a 0 -i 9 -k RTR
h -t 0.471466098 -s 7 -d 9 -p ack -e 40 -c 2 -a 0 -i 9 -k RTR
+ -t 0.473950719 -s 11 -d 10 -p tcp -e 1540 -c 2 -a 0 -i 10 -k RTR 
- -t 0.473950719 -s 11 -d 10 -p tcp -e 1540 -c 2 -a 0 -i 10 -k RTR
h -t 0.473950719 -s 11 -d 10 -p tcp -e 1540 -c 2 -a 0 -i 10 -k RTR
+ -t 0.487917211 -s 10 -d 9 -p tcp -e 1540 -c 2 -a 0 -i 10 -k RTR 
- -t 0.487917211 -s 10 -d 9 -p tcp -e 1540 -c 2 -a 0 -i 10 -k RTR
h -t 0.487917211 -s 10 -d 9 -p tcp -e 1540 -c 2 -a 0 -i 10 -k RTR
+ -t 0.501843639 -s 9 -d 7 -p tcp -e 1540 -c 2 -a 0 -i 10 -k RTR 
- -t 0.501843639 -s 9 -d 7 -p tcp -e 1540 -c 2 -a 0 -i 10 -k RTR
h -t 0.501843639 -s 9 -d 7 -p tcp -e 1540 -c 2 -a 0 -i 10 -k RTR
+ -t 0.516109562 -s 7 -d 1 -p tcp -e 1540 -c 2 -a 0 -i 10 -k RTR 
- -t 0.516109562 -s 7 -d 1 -p tcp -e 1540 -c 2 -a 0 -i 10 -k RTR
h -t 0.516109562 -s 7 -d 1 -p tcp -e 1540 -c 2 -a 0 -i 10 -k RTR
+ -t 0.530066946 -s 11 -d 10 -p tcp -e 1540 -c 2 -a 0 -i 11 -k RTR 
- -t 0.530066946 -s 11 -d 10 -p tcp -e 1540 -c 2 -a 0 -i 11 -k RTR
h -t 0.530066946 -s 11 -d 10 -p tcp -e 1540 -c 2 -a 0 -i 11 -k RTR
+ -t 0.544233437 -s 10 -d 9 -p tcp -e 1540 -c 2 -a 0 -i 11 -k RTR 
- -t 0.544233437 -s 10 -d 9 -p tcp -e 1540 -c 2 -a 0 -i 11 -k RTR
h -t 0.544233437 -s 10 -d 9 -p tcp -e 1540 -c 2 -a 0 -i 11 -k RTR
+ -t 0.558159866 -s 9 -d 7 -p tcp -e 1540 -c 2 -a 0 -i 11 -k RTR 
- -t 0.558159866 -s 9 -d 7 -p tcp -e 1540 -c 2 -a 0 -i 11 -k RTR
h -t 0.558159866 -s 9 -d 7 -p tcp -e 1540 -c 2 -a 0 -i 11 -k RTR
+ -t 0.572185788 -s 7 -d 1 -p tcp -e 1540 -c 2 -a 0 -i 11 -k RTR 
- -t 0.572185788 -s 7 -d 1 -p tcp -e 1540 -c 2 -a 0 -i 11 -k RTR
h -t 0.572185788 -s 7 -d 1 -p tcp -e 1540 -c 2 -a 0 -i 11 -k RTR
+ -t 0.579071711 -s 9 -d 10 -p ack -e 40 -c 2 -a 0 -i 8 -k RTR 
- -t 0.579071711 -s 9 -d 10 -p ack -e 40 -c 2 -a 0 -i 8 -k RTR
h -t 0.579071711 -s 9 -d 10 -p ack -e 40 -c 2 -a 0 -i 8 -k RTR
+ -t 0.580898274 -s 9 -d 10 -p ack -e 40 -c 2 -a 0 -i 9 -k RTR 
- -t 0.580898274 -s 9 -d 10 -p ack -e 40 -c 2 -a 0 -i 9 -k RTR
h -t 0.580898274 -s 9 -d 10 -p ack -e 40 -c 2 -a 0 -i 9 -k RTR
+ -t 0.582984702 -s 10 -d 11 -p ack -e 40 -c 2 -a 0 -i 8 -k RTR 
- -t 0.582984702 -s 10 -d 11 -p ack -e 40 -c 2 -a 0 -i 8 -k RTR
h -t 0.582984702 -s 10 -d 11 -p ack -e 40 -c 2 -a 0 -i 8 -k RTR
+ -t 0.584911941 -s 10 -d 11 -p ack -e 40 -c 2 -a 0 -i 9 -k RTR 
- -t 0.584911941 -s 10 -d 11 -p ack -e 40 -c 2 -a 0 -i 9 -k RTR
h -t 0.584911941 -s 10 -d 11 -p ack -e 40 -c 2 -a 0 -i 9 -k RTR
+ -t 0.586878432 -s 11 -d 0 -p ack -e 40 -c 2 -a 0 -i 8 -k RTR 
- -t 0.586878432 -s 11 -d 0 -p ack -e 40 -c 2 -a 0 -i 8 -k RTR
h -t 0.586878432 -s 11 -d 0 -p ack -e 40 -c 2 -a 0 -i 8 -k RTR
+ -t 0.588725754 -s 11 -d 0 -p ack -e 40 -c 2 -a 0 -i 9 -k RTR 
- -t 0.588725754 -s 11 -d 0 -p ack -e 40 -c 2 -a 0 -i 9 -k RTR
h -t 0.588725754 -s 11 -d 0 -p ack -e 40 -c 2 -a 0 -i 9 -k RTR
r -t 0.590632013 -s 0 -d 0 -p ack -e 40 -c 2 -a 0 -i 8 -k AGT
+ -t 0.590632013 -s 0 -d -1 -p tcp -e 1540 -c 2 -a 0 -i 12 -k AGT 
- -t 0.590632013 -s 0 -d -1 -p tcp -e 1540 -c 2 -a 0 -i 12 -k AGT
h -t 0.590632013 -s 0 -d -1 -p tcp -e 1540 -c 2 -a 0 -i 12 -k AGT
+ -t 0.590632013 -s 0 -d -1 -p tcp -e 1540 -c 2 -a 0 -i 13 -k AGT 
- -t 0.590632013 -s 0 -d -1 -p tcp -e 1540 -c 2 -a 0 -i 13 -k AGT
h -t 0.590632013 -s 0 -d -1 -p tcp -e 1540 -c 2 -a 0 -i 13 -k AGT
+ -t 0.590632013 -s 0 -d 11 -p tcp -e 1540 -c 2 -a 0 -i 12 -k RTR 
- -t 0.590632013 -s 0 -d 11 -p tcp -e 1540 -c 2 -a 0 -i 12 -k RTR
h -t 0.590632013 -s 0 -d 11 -p tcp -e 1540 -c 2 -a 0 -i 12 -k RTR
+ -t 0.590632013 -s 0 -d 11 -p tcp -e 1540 -c 2 -a 0 -i 13 -k RTR 
- -t 0.590632013 -s 0 -d 11 -p tcp -e 1540 -c 2 -a 0 -i 13 -k RTR
h -t 0.590632013 -s 0 -d 11 -p tcp -e 1540 -c 2 -a 0 -i 13 -k RTR
+ -t 0.604669169 -s 1 -d 4 -p tcp -e 1540 -c 2 -a 0 -i 10 -k RTR 
- -t 0.604669169 -s 1 -d 4 -p tcp -e 1540 -c 2 -a 0 -i 10 -k RTR
h -t 0.604669169 -s 1 -d 4 -p tcp -e 1540 -c 2 -a 0 -i 10 -k RTR
r -t 0.606826401 -s 0 -d 0 -p ack -e 40 -c 2 -a 0 -i 9 -k AGT
+ -t 0.606826401 -s 0 -d -1 -p tcp -e 1540 -c 2 -a 0 -i 14 -k AGT 
- -t 0.606826401 -s 0 -d -1 -p tcp -e 1540 -c 2 -a 0 -i 14 -k AGT
h -t 0.606826401 -s 0 -d -1 -p tcp -e 1540 -c 2 -a 0 -i 14 -k AGT
+ -t 0.606826401 -s 0 -d -1 -p tcp -e 1540 -c 2 -a 0 -i 15 -k AGT 
- -t 0.606826401 -s 0 -d -1 -p tcp -e 1540 -c 2 -a 0 -i 15 -k AGT
h -t 0.606826401 -s 0 -d -1 -p tcp -e 1540 -c 2 -a 0 -i 15 -k AGT
+ -t 0.606826401 -s 0 -d 11 -p tcp -e 1540 -c 2 -a 0 -i 14 -k RTR 
- -t 0.606826401 -s 0 -d 11 -p tcp -e 1540 -c 2 -a 0 -i 14 -k RTR
h -t 0.606826401 -s 0 -d 11 -p tcp -e 1540 -c 2 -a 0 -i 14 -k RTR
+ -t 0.606826401 -s 0 -d 11 -p tcp -e 1540 -c 2 -a 0 -i 15 -k RTR 
- -t 0.606826401 -s 0 -d 11 -p tcp -e 1540 -c 2 -a 0 -i 15 -k RTR
h -t 0.606826401 -s 0 -d 11 -p tcp -e 1540 -c 2 -a 0 -i 15 -k RTR
r -t 0.618714139 -s 4 -d 4 -p tcp -e 1540 -c 2 -a 0 -i 10 -k AGT
+ -t 0.618714139 -s 4 -d -1 -p ack -e 40 -c 2 -a 0 -i 16 -k AGT 
- -t 0.618714139 -s 4 -d -1 -p ack -e 40 -c 2 -a 0 -i 16 -k AGT
h -t 0.618714139 -s 4 -d -1 -p ack -e 40 -c 2 -a 0 -i 16 -k AGT
+ -t 0.618714139 -s 4 -d 1 -p ack -e 40 -c 2 -a 0 -i 16 -k RTR 
- -t 0.618714139 -s 4 -d 1 -p ack -e 40 -c 2 -a 0 -i 16 -k RTR
h -t 0.618714139 -s 4 -d 1 -p ack -e 40 -c 2 -a 0 -i 16 -k RTR
+ -t 0.620759110 -s 1 -d 7 -p ack -e 40 -c 2 -a 0 -i 16 -k RTR 
- -t 0.620759110 -s 1 -d 7 -p ack -e 40 -c 2 -a 0 -i 16 -k RTR
h -t 0.620759110 -s 1 -d 7 -p ack -e 40 -c 2 -a 0 -i 16 -k RTR
+ -t 0.622805312 -s 7 -d 9 -p ack -e 40 -c 2 -a 0 -i 16 -k RTR 
- -t 0.622805312 -s 7 -d 9 -p ack -e 40 -c 2 -a 0 -i 16 -k RTR
h -t 0.622805312 -s 7 -d 9 -p ack -e 40 -c 2 -a 0 -i 16 -k RTR
+ -t 0.629152659 -s 11 -d 10 -p tcp -e 1540 -c 2 -a 0 -i 12 -k RTR 
- -t 0.629152659 -s 11 -d 10 -p tcp -e 1540 -c 2 -a 0 -i 12 -k RTR
h -t 0.629152659 -s 11 -d 10 -p tcp -e 1540 -c 2 -a 0 -i 12 -k RTR
+ -t 0.636691514 -s 1 -d 4 -p tcp -e 1540 -c 2 -a 0 -i 11 -k RTR 
- -t 0.636691514 -s 1 -d 4 -p tcp -e 1540 -c 2 -a 0 -i 11 -k RTR
h -t 0.636691514 -s 1 -d 4 -p tcp -e 1540 -c 2 -a 0 -i 11 -k RTR
+ -t 0.650259671 -s 11 -d 10 -p tcp -e 1540 -c 2 -a 0 -i 13 -k RTR 
- -t 0.650259671 -s 11 -d 10 -p tcp -e 1540 -c 2 -a 0 -i 13 -k RTR
h -t 0.650259671 -s 11 -d 10 -p tcp -e 1540 -c 2 -a 0 -i 13 -k RTR
r -t 0.650896484 -s 4 -d 4 -p tcp -e 1540 -c 2 -a 0 -i 11 -k AGT
+ -t 0.650896484 -s 4 -d -1 -p ack -e 40 -c 2 -a 0 -i 17 -k AGT 
- -t 0.650896484 -s 4 -d -1 -p ack -e 40 -c 2 -a 0 -i 17 -k AGT
h -t 0.650896484 -s 4 -d -1 -p ack -e 40 -c 2 -a 0 -i 17 -k AGT
+ -t 0.650896484 -s 4 -d 1 -p ack -e 40 -c 2 -a 0 -i 17 -k RTR 
- -t 0.650896484 -s 4 -d 1 -p ack -e 40 -c 2 -a 0 -i 17 -k RTR
h -t 0.650896484 -s 4 -d 1 -p ack -e 40 -c 2 -a 0 -i 17 -k RTR
+ -t 0.653141454 -s 1 -d 7 -p ack -e 40 -c 2 -a 0 -i 17 -k RTR 
- -t 0.653141454 -s 1 -d 7 -p ack -e 40 -c 2 -a 0 -i 17 -k RTR
h -t 0.653141454 -s 1 -d 7 -p ack -e 40 -c 2 -a 0 -i 17 -k RTR