n -t * -s 0  -x 871 -y 444 -Z 0 -z 25  -v circle -c black
n -t * -s 1  -x 738 -y 151 -Z 0 -z 25  -v circle -c black
n -t * -s 2  -x 360 -y 130 -Z 0 -z 25  -v circle -c black
n -t * -s 3  -x 132 -y 794 -Z 0 -z 25  -v circle -c black
n -t * -s 4  -x 852 -y 602 -Z 0 -z 25  -v circle -c black
n -t * -s 5  -x 23 -y 312 -Z 0 -z 25  -v circle -c black
n -t * -s 6  -x 693 -y 447 -Z 0 -z 25  -v circle -c black
n -t * -s 7  -x 228 -y 117 -Z 0 -z 25  -v circle -c black
n -t * -s 8  -x 278 -y 521 -Z 0 -z 25  -v circle -c black
n -t * -s 9  -x 843 -y 138 -Z 0 -z 25  -v circle -c black
n -t * -s 10  -x 921 -y 266 -Z 0 -z 25  -v circle -c black
n -t * -s 11  -x 415 -y 976 -Z 0 -z 25  -v circle -c black
n -t * -s 12  -x 210 -y 894 -Z 0 -z 25  -v circle -c black
n -t * -s 13  -x 910 -y 598 -Z 0 -z 25  -v circle -c black
n -t * -s 14  -x 793 -y 515 -Z 0 -z 25  -v circle -c black
n -t * -s 15  -x 856 -y 217 -Z 0 -z 25  -v circle -c black
n -t * -s 16  -x 661 -y 885 -Z 0 -z 25  -v circle -c black
n -t * -s 17  -x 907 -y 293 -Z 0 -z 25  -v circle -c black
n -t * -s 18  -x 463 -y 155 -Z 0 -z 25  -v circle -c black
n -t * -s 19  -x 396 -y 916 -Z 0 -z 25  -v circle -c black
V -t * -v 1.0a5 -a 0
W -t * -x 1000 -y 1000
A -t * -n 1 -p 0 -o 0x7fffffff -c 30 -a 1
A -t * -h 1 -m 1073741823 -s 0
+ -t 0.010000000 -s 0 -d -1 -p tcp -e 40 -c 2 -a 0 -i 0 -k AGT 
- -t 0.010000000 -s 0 -d -1 -p tcp -e 40 -c 2 -a 0 -i 0 -k AGT
h -t 0.010000000 -s 0 -d -1 -p tcp -e 40 -c 2 -a 0 -i 0 -k AGT
+ -t 0.010000000 -s 0 -d -1 -p AODV -e 48 -c 2 -a 0 -i 0 -k RTR 
- -t 0.010000000 -s 0 -d -1 -p AODV -e 48 -c 2 -a 0 -i 0 -k RTR
h -t 0.010000000 -s 0 -d -1 -p AODV -e 48 -c 2 -a 0 -i 0 -k RTR
r -t 0.010988352 -s 14 -d -1 -p AODV -e 48 -c 2 -a 0 -i 0 -k RTR
r -t 0.010988517 -s 17 -d -1 -p AODV -e 48 -c 2 -a 0 -i 0 -k RTR
r -t 0.010988530 -s 13 -d -1 -p AODV -e 48 -c 2 -a 0 -i 0 -k RTR
r -t 0.010988530 -s 4 -d -1 -p AODV -e 48 -c 2 -a 0 -i 0 -k RTR
+ -t 0.010988530 -s 4 -d 0 -p AODV -e 44 -c 2 -a 0 -i 0 -k RTR 
- -t 0.010988530 -s 4 -d 0 -p AODV -e 44 -c 2 -a 0 -i 0 -k RTR
h -t 0.010988530 -s 4 -d 0 -p AODV -e 44 -c 2 -a 0 -i 0 -k RTR
r -t 0.010988593 -s 6 -d -1 -p AODV -e 48 -c 2 -a 0 -i 0 -k RTR
r -t 0.010988616 -s 10 -d -1 -p AODV -e 48 -c 2 -a 0 -i 0 -k RTR
r -t 0.010988758 -s 15 -d -1 -p AODV -e 48 -c 2 -a 0 -i 0 -k RTR
+ -t 0.011869578 -s 14 -d -1 -p AODV -e 48 -c 2 -a 0 -i 0 -k RTR 
- -t 0.011869578 -s 14 -d -1 -p AODV -e 48 -c 2 -a 0 -i 0 -k RTR
h -t 0.011869578 -s 14 -d -1 -p AODV -e 48 -c 2 -a 0 -i 0 -k RTR
+ -t 0.013334776 -s 15 -d -1 -p AODV -e 48 -c 2 -a 0 -i 0 -k RTR 
- -t 0.013334776 -s 15 -d -1 -p AODV -e 48 -c 2 -a 0 -i 0 -k RTR
h -t 0.013334776 -s 15 -d -1 -p AODV -e 48 -c 2 -a 0 -i 0 -k RTR
+ -t 0.014118211 -s 6 -d -1 -p AODV -e 48 -c 2 -a 0 -i 0 -k RTR 
- -t 0.014118211 -s 6 -d -1 -p AODV -e 48 -c 2 -a 0 -i 0 -k RTR
h -t 0.014118211 -s 6 -d -1 -p AODV -e 48 -c 2 -a 0 -i 0 -k RTR
+ -t 0.015400251 -s 17 -d -1 -p AODV -e 48 -c 2 -a 0 -i 0 -k RTR 
- -t 0.015400251 -s 17 -d -1 -p AODV -e 48 -c 2 -a 0 -i 0 -k RTR
h -t 0.015400251 -s 17 -d -1 -p AODV -e 48 -c 2 -a 0 -i 0 -k RTR
+ -t 0.015630244 -s 0 -d 4 -p tcp -e 40 -c 2 -a 0 -i 0 -k RTR 
- -t 0.015630244 -s 0 -d 4 -p tcp -e 40 -c 2 -a 0 -i 0 -k RTR
h -t 0.015630244 -s 0 -d 4 -p tcp -e 40 -c 2 -a 0 -i 0 -k RTR
r -t 0.016862946 -s 4 -d -1 -p AODV -e 48 -c 2 -a 0 -i 0 -k RTR
r -t 0.016862947 -s 0 -d -1 -p AODV -e 48 -c 2 -a 0 -i 0 -k RTR
r -t 0.016862998 -s 6 -d -1 -p AODV -e 48 -c 2 -a 0 -i 0 -k RTR
r -t 0.016863073 -s 13 -d -1 -p AODV -e 48 -c 2 -a 0 -i 0 -k RTR
r -t 0.016863427 -s 17 -d -1 -p AODV -e 48 -c 2 -a 0 -i 0 -k RTR
r -t 0.017901401 -s 14 -d -1 -p AODV -e 48 -c 2 -a 0 -i 0 -k RTR
r -t 0.017901592 -s 0 -d -1 -p AODV -e 48 -c 2 -a 0 -i 0 -k RTR
r -t 0.017901739 -s 4 -d -1 -p AODV -e 48 -c 2 -a 0 -i 0 -k RTR
+ -t 0.018980084 -s 13 -d -1 -p AODV -e 48 -c 2 -a 0 -i 0 -k RTR 
- -t 0.018980084 -s 13 -d -1 -p AODV -e 48 -c 2 -a 0 -i 0 -k RTR
h -t 0.018980084 -s 13 -d -1 -p AODV -e 48 -c 2 -a 0 -i 0 -k RTR
+ -t 0.019153377 -s 10 -d -1 -p AODV -e 48 -c 2 -a 0 -i 0 -k RTR 
- -t 0.019153377 -s 10 -d -1 -p AODV -e 48 -c 2 -a 0 -i 0 -k RTR
h -t 0.019153377 -s 10 -d -1 -p AODV -e 48 -c 2 -a 0 -i 0 -k RTR
r -t 0.019733183 -s 4 -d 4 -p tcp -e 40 -c 2 -a 0 -i 0 -k AGT
+ -t 0.019733183 -s 4 -d -1 -p ack -e 40 -c 2 -a 0 -i 1 -k AGT 
- -t 0.019733183 -s 4 -d -1 -p ack -e 40 -c 2 -a 0 -i 1 -k AGT
h -t 0.019733183 -s 4 -d -1 -p ack -e 40 -c 2 -a 0 -i 1 -k AGT
+ -t 0.019733183 -s 4 -d 0 -p ack -e 40 -c 2 -a 0 -i 1 -k RTR 
- -t 0.019733183 -s 4 -d 0 -p ack -e 40 -c 2 -a 0 -i 1 -k RTR
h -t 0.019733183 -s 4 -d 0 -p ack -e 40 -c 2 -a 0 -i 1 -k RTR
r -t 0.021758775 -s 0 -d 0 -p ack -e 40 -c 2 -a 0 -i 1 -k AGT
+ -t 0.021758775 -s 0 -d -1 -p tcp -e 1540 -c 2 -a 0 -i 2 -k AGT 
- -t 0.021758775 -s 0 -d -1 -p tcp -e 1540 -c 2 -a 0 -i 2 -k AGT
h -t 0.021758775 -s 0 -d -1 -p tcp -e 1540 -c 2 -a 0 -i 2 -k AGT
+ -t 0.021758775 -s 0 -d -1 -p tcp -e 1540 -c 2 -a 0 -i 3 -k AGT 
- -t 0.021758775 -s 0 -d -1 -p tcp -e 1540 -c 2 -a 0 -i 3 -k AGT
h -t 0.021758775 -s 0 -d -1 -p tcp -e 1540 -c 2 -a 0 -i 3 -k AGT
+ -t 0.021758775 -s 0 -d 4 -p tcp -e 1540 -c 2 -a 0 -i 2 -k RTR 
- -t 0.021758775 -s 0 -d 4 -p tcp -e 1540 -c 2 -a 0 -i 2 -k RTR
h -t 0.021758775 -s 0 -d 4 -p tcp -e 1540 -c 2 -a 0 -i 2 -k RTR
+ -t 0.021758775 -s 0 -d 4 -p tcp -e 1540 -c 2 -a 0 -i 3 -k RTR 
- -t 0.021758775 -s 0 -d 4 -p tcp -e 1540 -c 2 -a 0 -i 3 -k RTR
h -t 0.021758775 -s 0 -d 4 -p tcp -e 1540 -c 2 -a 0 -i 3 -k RTR
r -t 0.035624366 -s 4 -d 4 -p tcp -e 1540 -c 2 -a 0 -i 2 -k AGT
+ -t 0.035624366 -s 4 -d -1 -p ack -e 40 -c 2 -a 0 -i 4 -k AGT 
- -t 0.035624366 -s 4 -d -1 -p ack -e 40 -c 2 -a 0 -i 4 -k AGT
h -t 0.035624366 -s 4 -d -1 -p ack -e 40 -c 2 -a 0 -i 4 -k AGT
+ -t 0.035624366 -s 4 -d 0 -p ack -e 40 -c 2 -a 0 -i 4 -k RTR 
- -t 0.035624366 -s 4 -d 0 -p ack -e 40 -c 2 -a 0 -i 4 -k RTR
h -t 0.035624366 -s 4 -d 0 -p ack -e 40 -c 2 -a 0 -i 4 -k RTR
r -t 0.036976754 -s 4 -d -1 -p AODV -e 48 -c 2 -a 0 -i 0 -k RTR
r -t 0.036977038 -s 14 -d -1 -p AODV -e 48 -c 2 -a 0 -i 0 -k RTR
r -t 0.036977089 -s 0 -d -1 -p AODV -e 48 -c 2 -a 0 -i 0 -k RTR
r -t 0.038588345 -s 0 -d 0 -p ack -e 40 -c 2 -a 0 -i 4 -k AGT
+ -t 0.038588345 -s 0 -d -1 -p tcp -e 1540 -c 2 -a 0 -i 5 -k AGT 
- -t 0.038588345 -s 0 -d -1 -p tcp -e 1540 -c 2 -a 0 -i 5 -k AGT
h -t 0.038588345 -s 0 -d -1 -p tcp -e 1540 -c 2 -a 0 -i 5 -k AGT
+ -t 0.038588345 -s 0 -d -1 -p tcp -e 1540 -c 2 -a 0 -i 6 -k AGT 
- -t 0.038588345 -s 0 -d -1 -p tcp -e 1540 -c 2 -a 0 -i 6 -k AGT
h -t 0.038588345 -s 0 -d -1 -p tcp -e 1540 -c 2 -a 0 -i 6 -k AGT
+ -t 0.038588345 -s 0 -d 4 -p tcp -e 1540 -c 2 -a 0 -i 5 -k RTR 
- -t 0.038588345 -s 0 -d 4 -p tcp -e 1540 -c 2 -a 0 -i 5 -k RTR
h -t 0.038588345 -s 0 -d 4 -p tcp -e 1540 -c 2 -a 0 -i 5 -k RTR
+ -t 0.038588345 -s 0 -d 4 -p tcp -e 1540 -c 2 -a 0 -i 6 -k RTR 
- -t 0.038588345 -s 0 -d 4 -p tcp -e 1540 -c 2 -a 0 -i 6 -k RTR
h -t 0.038588345 -s 0 -d 4 -p tcp -e 1540 -c 2 -a 0 -i 6 -k RTR
r -t 0.039891365 -s 9 -d -1 -p AODV -e 48 -c 2 -a 0 -i 0 -k RTR
r -t 0.039891369 -s 10 -d -1 -p AODV -e 48 -c 2 -a 0 -i 0 -k RTR
r -t 0.039891403 -s 17 -d -1 -p AODV -e 48 -c 2 -a 0 -i 0 -k RTR
r -t 0.039891549 -s 1 -d -1 -p AODV -e 48 -c 2 -a 0 -i 0 -k RTR
r -t 0.039891856 -s 0 -d -1 -p AODV -e 48 -c 2 -a 0 -i 0 -k RTR
+ -t 0.042062959 -s 9 -d -1 -p AODV -e 48 -c 2 -a 0 -i 0 -k RTR 
- -t 0.042062959 -s 9 -d -1 -p AODV -e 48 -c 2 -a 0 -i 0 -k RTR
h -t 0.042062959 -s 9 -d -1 -p AODV -e 48 -c 2 -a 0 -i 0 -k RTR
+ -t 0.042303805 -s 1 -d -1 -p AODV -e 48 -c 2 -a 0 -i 0 -k RTR 
- -t 0.042303805 -s 1 -d -1 -p AODV -e 48 -c 2 -a 0 -i 0 -k RTR
h -t 0.042303805 -s 1 -d -1 -p AODV -e 48 -c 2 -a 0 -i 0 -k RTR
r -t 0.053523448 -s 4 -d 4 -p tcp -e 1540 -c 2 -a 0 -i 3 -k AGT
+ -t 0.053523448 -s 4 -d -1 -p ack -e 40 -c 2 -a 0 -i 7 -k AGT 
- -t 0.053523448 -s 4 -d -1 -p ack -e 40 -c 2 -a 0 -i 7 -k AGT
h -t 0.053523448 -s 4 -d -1 -p ack -e 40 -c 2 -a 0 -i 7 -k AGT
+ -t 0.053523448 -s 4 -d 0 -p ack -e 40 -c 2 -a 0 -i 7 -k RTR 
- -t 0.053523448 -s 4 -d 0 -p ack -e 40 -c 2 -a 0 -i 7 -k RTR
h -t 0.053523448 -s 4 -d 0 -p ack -e 40 -c 2 -a 0 -i 7 -k RTR
r -t 0.067709569 -s 4 -d 4 -p tcp -e 1540 -c 2 -a 0 -i 5 -k AGT
+ -t 0.067709569 -s 4 -d -1 -p ack -e 40 -c 2 -a 0 -i 8 -k AGT 
- -t 0.067709569 -s 4 -d -1 -p ack -e 40 -c 2 -a 0 -i 8 -k AGT
h -t 0.067709569 -s 4 -d -1 -p ack -e 40 -c 2 -a 0 -i 8 -k AGT
+ -t 0.067709569 -s 4 -d 0 -p ack -e 40 -c 2 -a 0 -i 8 -k RTR 
- -t 0.067709569 -s 4 -d 0 -p ack -e 40 -c 2 -a 0 -i 8 -k RTR
h -t 0.067709569 -s 4 -d 0 -p ack -e 40 -c 2 -a 0 -i 8 -k RTR
r -t 0.069869391 -s 15 -d -1 -p AODV -e 48 -c 2 -a 0 -i 0 -k RTR
r -t 0.069869477 -s 1 -d -1 -p AODV -e 48 -c 2 -a 0 -i 0 -k RTR
r -t 0.069869624 -s 10 -d -1 -p AODV -e 48 -c 2 -a 0 -i 0 -k RTR
r -t 0.069869683 -s 17 -d -1 -p AODV -e 48 -c 2 -a 0 -i 0 -k RTR
r -t 0.070787784 -s 10 -d -1 -p AODV -e 48 -c 2 -a 0 -i 0 -k RTR
r -t 0.070787988 -s 15 -d -1 -p AODV -e 48 -c 2 -a 0 -i 0 -k RTR
r -t 0.070788201 -s 0 -d -1 -p AODV -e 48 -c 2 -a 0 -i 0 -k RTR
r -t 0.070788242 -s 9 -d -1 -p AODV -e 48 -c 2 -a 0 -i 0 -k RTR
r -t 0.070788419 -s 1 -d -1 -p AODV -e 48 -c 2 -a 0 -i 0 -k RTR
r -t 0.070788515 -s 14 -d -1 -p AODV -e 48 -c 2 -a 0 -i 0 -k RTR
r -t 0.071785886 -s 17 -d -1 -p AODV -e 48 -c 2 -a 0 -i 0 -k RTR
r -t 0.071786056 -s 15 -d -1 -p AODV -e 48 -c 2 -a 0 -i 0 -k RTR
r -t 0.071786284 -s 9 -d -1 -p AODV -e 48 -c 2 -a 0 -i 0 -k RTR
r -t 0.071786401 -s 0 -d -1 -p AODV -e 48 -c 2 -a 0 -i 0 -k RTR
r -t 0.071786505 -s 1 -d -1 -p AODV -e 48 -c 2 -a 0 -i 0 -k RTR
r -t 0.072824858 -s 9 -d -1 -p AODV -e 48 -c 2 -a 0 -i 0 -k RTR
r -t 0.072824956 -s 15 -d -1 -p AODV -e 48 -c 2 -a 0 -i 0 -k RTR
r -t 0.072825225 -s 10 -d -1 -p AODV -e 48 -c 2 -a 0 -i 0 -k RTR
r -t 0.072825241 -s 17 -d -1 -p AODV -e 48 -c 2 -a 0 -i 0 -k RTR
r -t 0.087541169 -s 4 -d 4 -p tcp -e 1540 -c 2 -a 0 -i 6 -k AGT
+ -t 0.087541169 -s 4 -d -1 -p ack -e 40 -c 2 -a 0 -i 9 -k AGT 
- -t 0.087541169 -s 4 -d -1 -p ack -e 40 -c 2 -a 0 -i 9 -k AGT
h -t 0.087541169 -s 4 -d -1 -p ack -e 40 -c 2 -a 0 -i 9 -k AGT
+ -t 0.087541169 -s 4 -d 0 -p ack -e 40 -c 2 -a 0 -i 9 -k RTR 
- -t 0.087541169 -s 4 -d 0 -p ack -e 40 -c 2 -a 0 -i 9 -k RTR
h -t 0.087541169 -s 4 -d 0 -p ack -e 40 -c 2 -a 0 -i 9 -k RTR
r -t 0.089526760 -s 0 -d 0 -p ack -e 40 -c 2 -a 0 -i 7 -k AGT
+ -t 0.089526760 -s 0 -d -1 -p tcp -e 1540 -c 2 -a 0 -i 10 -k AGT 
- -t 0.089526760 -s 0 -d -1 -p tcp -e 1540 -c 2 -a 0 -i 10 -k AGT
h -t 0.089526760 -s 0 -d -1 -p tcp -e 1540 -c 2 -a 0 -i 10 -k AGT
+ -t 0.089526760 -s 0 -d -1 -p tcp -e 1540 -c 2 -a 0 -i 11 -k AGT 
- -t 0.089526760 -s 0 -d -1 -p tcp -e 1540 -c 2 -a 0 -i 11 -k AGT
h -t 0.089526760 -s 0 -d -1 -p tcp -e 1540 -c 2 -a 0 -i 11 -k AGT
+ -t 0.089526760 -s 0 -d 4 -p tcp -e 1540 -c 2 -a 0 -i 10 -k RTR 
- -t 0.089526760 -s 0 -d 4 -p tcp -e 1540 -c 2 -a 0 -i 10 -k RTR
h -t 0.089526760 -s 0 -d 4 -p tcp -e 1540 -c 2 -a 0 -i 10 -k RTR
+ -t 0.089526760 -s 0 -d 4 -p tcp -e 1540 -c 2 -a 0 -i 11 -k RTR 
- -t 0.089526760 -s 0 -d 4 -p tcp -e 1540 -c 2 -a 0 -i 11 -k RTR
h -t 0.089526760 -s 0 -d 4 -p tcp -e 1540 -c 2 -a 0 -i 11 -k RTR
r -t 0.103392352 -s 4 -d 4 -p tcp -e 1540 -c 2 -a 0 -i 10 -k AGT
+ -t 0.103392352 -s 4 -d -1 -p ack -e 40 -c 2 -a 0 -i 12 -k AGT 
- -t 0.103392352 -s 4 -d -1 -p ack -e 40 -c 2 -a 0 -i 12 -k AGT
h -t 0.103392352 -s 4 -d -1 -p ack -e 40 -c 2 -a 0 -i 12 -k AGT
+ -t 0.103392352 -s 4 -d 0 -p ack -e 40 -c 2 -a 0 -i 12 -k RTR 
- -t 0.103392352 -s 4 -d 0 -p ack -e 40 -c 2 -a 0 -i 12 -k RTR
h -t 0.103392352 -s 4 -d 0 -p ack -e 40 -c 2 -a 0 -i 12 -k RTR
r -t 0.117278473 -s 4 -d 4 -p tcp -e 1540 -c 2 -a 0 -i 11 -k AGT
+ -t 0.117278473 -s 4 -d -1 -p ack -e 40 -c 2 -a 0 -i 13 -k AGT 
- -t 0.117278473 -s 4 -d -1 -p ack -e 40 -c 2 -a 0 -i 13 -k AGT
h -t 0.117278473 -s 4 -d -1 -p ack -e 40 -c 2 -a 0 -i 13 -k AGT
+ -t 0.117278473 -s 4 -d 0 -p ack -e 40 -c 2 -a 0 -i 13 -k RTR 
- -t 0.117278473 -s 4 -d 0 -p ack -e 40 -c 2 -a 0 -i 13 -k RTR
h -t 0.117278473 -s 4 -d 0 -p ack -e 40 -c 2 -a 0 -i 13 -k RTR
r -t 0.119584065 -s 0 -d 0 -p ack -e 40 -c 2 -a 0 -i 8 -k AGT
+ -t 0.119584065 -s 0 -d -1 -p tcp -e 1540 -c 2 -a 0 -i 14 -k AGT 
- -t 0.119584065 -s 0 -d -1 -p tcp -e 1540 -c 2 -a 0 -i 14 -k AGT
h -t 0.119584065 -s 0 -d -1 -p tcp -e 1540 -c 2 -a 0 -i 14 -k AGT
+ -t 0.119584065 -s 0 -d -1 -p tcp -e 1540 -c 2 -a 0 -i 15 -k AGT 
- -t 0.119584065 -s 0 -d -1 -p tcp -e 1540 -c 2 -a 0 -i 15 -k AGT
h -t 0.119584065 -s 0 -d -1 -p tcp -e 1540 -c 2 -a 0 -i 15 -k AGT
+ -t 0.119584065 -s 0 -d 4 -p tcp -e 1540 -c 2 -a 0 -i 14 -k RTR 
- -t 0.119584065 -s 0 -d 4 -p tcp -e 1540 -c 2 -a 0 -i 14 -k RTR
h -t 0.119584065 -s 0 -d 4 -p tcp -e 1540 -c 2 -a 0 -i 14 -k RTR
+ -t 0.119584065 -s 0 -d 4 -p tcp -e 1540 -c 2 -a 0 -i 15 -k RTR 
- -t 0.119584065 -s 0 -d 4 -p tcp -e 1540 -c 2 -a 0 -i 15 -k RTR
h -t 0.119584065 -s 0 -d 4 -p tcp -e 1540 -c 2 -a 0 -i 15 -k RTR
r -t 0.133749656 -s 4 -d 4 -p tcp -e 1540 -c 2 -a 0 -i 14 -k AGT
+ -t 0.133749656 -s 4 -d -1 -p ack -e 40 -c 2 -a 0 -i 16 -k AGT 
- -t 0.133749656 -s 4 -d -1 -p ack -e 40 -c 2 -a 0 -i 16 -k AGT
h -t 0.133749656 -s 4 -d -1 -p ack -e 40 -c 2 -a 0 -i 16 -k AGT
+ -t 0.133749656 -s 4 -d 0 -p ack -e 40 -c 2 -a 0 -i 16 -k RTR 
- -t 0.133749656 -s 4 -d 0 -p ack -e 40 -c 2 -a 0 -i 16 -k RTR
h -t 0.133749656 -s 4 -d 0 -p ack -e 40 -c 2 -a 0 -i 16 -k RTR
r -t 0.135735248 -s 0 -d 0 -p ack -e 40 -c 2 -a 0 -i 9 -k AGT
+ -t 0.135735248 -s 0 -d -1 -p tcp -e 1540 -c 2 -a 0 -i 17 -k AGT 
- -t 0.135735248 -s 0 -d -1 -p tcp -e 1540 -c 2 -a 0 -i 17 -k AGT
h -t 0.135735248 -s 0 -d -1 -p tcp -e 1540 -c 2 -a 0 -i 17 -k AGT
+ -t 0.135735248 -s 0 -d -1 -p tcp -e 1540 -c 2 -a 0 -i 18 -k AGT 
- -t 0.135735248 -s 0 -d -1 -p tcp -e 1540 -c 2 -a 0 -i 18 -k AGT
h -t 0.135735248 -s 0 -d -1 -p tcp -e 1540 -c 2 -a 0 -i 18 -k AGT
+ -t 0.135735248 -s 0 -d 4 -p tcp -e 1540 -c 2 -a 0 -i 17 -k RTR 
- -t 0.135735248 -s 0 -d 4 -p tcp -e 1540 -c 2 -a 0 -i 17 -k RTR
h -t 0.135735248 -s 0 -d 4 -p tcp -e 1540 -c 2 -a 0 -i 17 -k RTR
+ -t 0.135735248 -s 0 -d 4 -p tcp -e 1540 -c 2 -a 0 -i 18 -k RTR 
- -t 0.135735248 -s 0 -d 4 -p tcp -e 1540 -c 2 -a 0 -i 18 -k RTR
h -t 0.135735248 -s 0 -d 4 -p tcp -e 1540 -c 2 -a 0 -i 18 -k RTR
r -t 0.149700839 -s 4 -d 4 -p tcp -e 1540 -c 2 -a 0 -i 15 -k AGT
+ -t 0.149700839 -s 4 -d -1 -p ack -e 40 -c 2 -a 0 -i 19 -k AGT 
- -t 0.149700839 -s 4 -d -1 -p ack -e 40 -c 2 -a 0 -i 19 -k AGT
h -t 0.149700839 -s 4 -d -1 -p ack -e 40 -c 2 -a 0 -i 19 -k AGT
+ -t 0.149700839 -s 4 -d 0 -p ack -e 40 -c 2 -a 0 -i 19 -k RTR 
- -t 0.149700839 -s 4 -d 0 -p ack -e 40 -c 2 -a 0 -i 19 -k RTR
h -t 0.149700839 -s 4 -d 0 -p ack -e 40 -c 2 -a 0 -i 19 -k RTR
r -t 0.151566430 -s 0 -d 0 -p ack -e 40 -c 2 -a 0 -i 12 -k AGT
+ -t 0.151566430 -s 0 -d -1 -p tcp -e 1540 -c 2 -a 0 -i 20 -k AGT 
- -t 0.151566430 -s 0 -d -1 -p tcp -e 1540 -c 2 -a 0 -i 20 -k AGT
h -t 0.151566430 -s 0 -d -1 -p tcp -e 1540 -c 2 -a 0 -i 20 -k AGT
+ -t 0.151566430 -s 0 -d -1 -p tcp -e 1540 -c 2 -a 0 -i 21 -k AGT 
- -t 0.151566430 -s 0 -d -1 -p tcp -e 1540 -c 2 -a 0 -i 21 -k AGT
h -t 0.151566430 -s 0 -d -1 -p tcp -e 1540 -c 2 -a 0 -i 21 -k AGT
+ -t 0.151566430 -s 0 -d 4 -p tcp -e 1540 -c 2 -a 0 -i 20 -k RTR 
- -t 0.151566430 -s 0 -d 4 -p tcp -e 1540 -c 2 -a 0 -i 20 -k RTR
h -t 0.151566430 -s 0 -d 4 -p tcp -e 1540 -c 2 -a 0 -i 20 -k RTR
+ -t 0.151566430 -s 0 -d 4 -p tcp -e 1540 -c 2 -a 0 -i 21 -k RTR 
- -t 0.151566430 -s 0 -d 4 -p tcp -e 1540 -c 2 -a 0 -i 21 -k RTR
h -t 0.151566430 -s 0 -d 4 -p tcp -e 1540 -c 2 -a 0 -i 21 -k RTR
r -t 0.165632022 -s 4 -d 4 -p tcp -e 1540 -c 2 -a 0 -i 17 -k AGT
+ -t 0.165632022 -s 4 -d -1 -p ack -e 40 -c 2 -a 0 -i 22 -k AGT 
- -t 0.165632022 -s 4 -d -1 -p ack -e 40 -c 2 -a 0 -i 22 -k AGT
h -t 0.165632022 -s 4 -d -1 -p ack -e 40 -c 2 -a 0 -i 22 -k AGT
+ -t 0.165632022 -s 4 -d 0 -p ack -e 40 -c 2 -a 0 -i 22 -k RTR 
- -t 0.165632022 -s 4 -d 0 -p ack -e 40 -c 2 -a 0 -i 22 -k RTR
h -t 0.165632022 -s 4 -d 0 -p ack -e 40 -c 2 -a 0 -i 22 -k RTR
r -t 0.179458144 -s 4 -d 4 -p tcp -e 1540 -c 2 -a 0 -i 18 -k AGT
+ -t 0.179458144 -s 4 -d -1 -p ack -e 40 -c 2 -a 0 -i 23 -k AGT 
- -t 0.179458144 -s 4 -d -1 -p ack -e 40 -c 2 -a 0 -i 23 -k AGT
h -t 0.179458144 -s 4 -d -1 -p ack -e 40 -c 2 -a 0 -i 23 -k AGT
+ -t 0.179458144 -s 4 -d 0 -p ack -e 40 -c 2 -a 0 -i 23 -k RTR 
- -t 0.179458144 -s 4 -d 0 -p ack -e 40 -c 2 -a 0 -i 23 -k RTR
h -t 0.179458144 -s 4 -d 0 -p ack -e 40 -c 2 -a 0 -i 23 -k RTR
r -t 0.193504265 -s 4 -d 4 -p tcp -e 1540 -c 2 -a 0 -i 20 -k AGT
+ -t 0.193504265 -s 4 -d -1 -p ack -e 40 -c 2 -a 0 -i 24 -k AGT 
- -t 0.193504265 -s 4 -d -1 -p ack -e 40 -c 2 -a 0 -i 24 -k AGT
h -t 0.193504265 -s 4 -d -1 -p ack -e 40 -c 2 -a 0 -i 24 -k AGT
+ -t 0.193504265 -s 4 -d 0 -p ack -e 40 -c 2 -a 0 -i 24 -k RTR 
- -t 0.193504265 -s 4 -d 0 -p ack -e 40 -c 2 -a 0 -i 24 -k RTR
h -t 0.193504265 -s 4 -d 0 -p ack -e 40 -c 2 -a 0 -i 24 -k RTR
r -t 0.195349857 -s 0 -d 0 -p ack -e 40 -c 2 -a 0 -i 13 -k AGT
+ -t 0.195349857 -s 0 -d -1 -p tcp -e 1540 -c 2 -a 0 -i 25 -k AGT 
- -t 0.195349857 -s 0 -d -1 -p tcp -e 1540 -c 2 -a 0 -i 25 -k AGT
h -t 0.195349857 -s 0 -d -1 -p tcp -e 1540 -c 2 -a 0 -i 25 -k AGT
+ -t 0.195349857 -s 0 -d -1 -p tcp -e 1540 -c 2 -a 0 -i 26 -k AGT 
- -t 0.195349857 -s 0 -d -1 -p tcp -e 1540 -c 2 -a 0 -i 26 -k AGT
h -t 0.195349857 -s 0 -d -1 -p tcp -e 1540 -c 2 -a 0 -i 26 -k AGT
+ -t 0.195349857 -s 0 -d 4 -p tcp -e 1540 -c 2 -a 0 -i 25 -k RTR 
- -t 0.195349857 -s 0 -d 4 -p tcp -e 1540 -c 2 -a 0 -i 25 -k RTR
h -t 0.195349857 -s 0 -d 4 -p tcp -e 1540 -c 2 -a 0 -i 25 -k RTR
+ -t 0.195349857 -s 0 -d 4 -p tcp -e 1540 -c 2 -a 0 -i 26 -k RTR 
- -t 0.195349857 -s 0 -d 4 -p tcp -e 1540 -c 2 -a 0 -i 26 -k RTR
h -t 0.195349857 -s 0 -d 4 -p tcp -e 1540 -c 2 -a 0 -i 26 -k RTR
r -t 0.197335979 -s 0 -d 0 -p ack -e 40 -c 2 -a 0 -i 16 -k AGT
+ -t 0.197335979 -s 0 -d -1 -p tcp -e 1540 -c 2 -a 0 -i 27 -k AGT 
- -t 0.197335979 -s 0 -d -1 -p tcp -e 1540 -c 2 -a 0 -i 27 -k AGT
h -t 0.197335979 -s 0 -d -1 -p tcp -e 1540 -c 2 -a 0 -i 27 -k AGT
+ -t 0.197335979 -s 0 -d -1 -p tcp -e 1540 -c 2 -a 0 -i 28 -k AGT 
- -t 0.197335979 -s 0 -d -1 -p tcp -e 1540 -c 2 -a 0 -i 28 -k AGT
h -t 0.197335979 -s 0 -d -1 -p tcp -e 1540 -c 2 -a 0 -i 28 -k AGT
+ -t 0.197335979 -s 0 -d 4 -p tcp -e 1540 -c 2 -a 0 -i 27 -k RTR 
- -t 0.197335979 -s 0 -d 4 -p tcp -e 1540 -c 2 -a 0 -i 27 -k RTR
h -t 0.197335979 -s 0 -d 4 -p tcp -e 1540 -c 2 -a 0 -i 27 -k RTR
+ -t 0.197335979 -s 0 -d 4 -p tcp -e 1540 -c 2 -a 0 -i 28 -k RTR 
- -t 0.197335979 -s 0 -d 4 -p tcp -e 1540 -c 2 -a 0 -i 28 -k RTR
h -t 0.197335979 -s 0 -d 4 -p tcp -e 1540 -c 2 -a 0 -i 28 -k RTR
r -t 0.211321570 -s 4 -d 4 -p tcp -e 1540 -c 2 -a 0 -i 21 -k AGT
+ -t 0.211321570 -s 4 -d -1 -p ack -e 40 -c 2 -a 0 -i 29 -k AGT 
- -t 0.211321570 -s 4 -d -1 -p ack -e 40 -c 2 -a 0 -i 29 -k AGT
h -t 0.211321570 -s 4 -d -1 -p ack -e 40 -c 2 -a 0 -i 29 -k AGT
+ -t 0.211321570 -s 4 -d 0 -p ack -e 40 -c 2 -a 0 -i 29 -k RTR 
- -t 0.211321570 -s 4 -d 0 -p ack -e 40 -c 2 -a 0 -i 29 -k RTR
h -t 0.211321570 -s 4 -d 0 -p ack -e 40 -c 2 -a 0 -i 29 -k RTR
r -t 0.226093692 -s 4 -d 4 -p tcp -e 1540 -c 2 -a 0 -i 25 -k AGT
+ -t 0.226093692 -s 4 -d -1 -p ack -e 40 -c 2 -a 0 -i 30 -k AGT 
- -t 0.226093692 -s 4 -d -1 -p ack -e 40 -c 2 -a 0 -i 30 -k AGT
h -t 0.226093692 -s 4 -d -1 -p ack -e 40 -c 2 -a 0 -i 30 -k AGT
+ -t 0.226093692 -s 4 -d 0 -p ack -e 40 -c 2 -a 0 -i 30 -k RTR 
- -t 0.226093692 -s 4 -d 0 -p ack -e 40 -c 2 -a 0 -i 30 -k RTR
h -t 0.226093692 -s 4 -d 0 -p ack -e 40 -c 2 -a 0 -i 30 -k RTR
r -t 0.240159814 -s 4 -d 4 -p tcp -e 1540 -c 2 -a 0 -i 26 -k AGT
+ -t 0.240159814 -s 4 -d -1 -p ack -e 40 -c 2 -a 0 -i 31 -k AGT 
- -t 0.240159814 -s 4 -d -1 -p ack -e 40 -c 2 -a 0 -i 31 -k AGT
h -t 0.240159814 -s 4 -d -1 -p ack -e 40 -c 2 -a 0 -i 31 -k AGT
+ -t 0.240159814 -s 4 -d 0 -p ack -e 40 -c 2 -a 0 -i 31 -k RTR 
- -t 0.240159814 -s 4 -d 0 -p ack -e 40 -c 2 -a 0 -i 31 -k RTR
h -t 0.240159814 -s 4 -d 0 -p ack -e 40 -c 2 -a 0 -i 31 -k RTR
r -t 0.242025405 -s 0 -d 0 -p ack -e 40 -c 2 -a 0 -i 19 -k AGT
+ -t 0.242025405 -s 0 -d -1 -p tcp -e 1540 -c 2 -a 0 -i 32 -k AGT 
- -t 0.242025405 -s 0 -d -1 -p tcp -e 1540 -c 2 -a 0 -i 32 -k AGT
h -t 0.242025405 -s 0 -d -1 -p tcp -e 1540 -c 2 -a 0 -i 32 -k AGT
+ -t 0.242025405 -s 0 -d -1 -p tcp -e 1540 -c 2 -a 0 -i 33 -k AGT 
- -t 0.242025405 -s 0 -d -1 -p tcp -e 1540 -c 2 -a 0 -i 33 -k AGT
h -t 0.242025405 -s 0 -d -1 -p tcp -e 1540 -c 2 -a 0 -i 33 -k AGT
+ -t 0.242025405 -s 0 -d 4 -p tcp -e 1540 -c 2 -a 0 -i 32 -k RTR 
- -t 0.242025405 -s 0 -d 4 -p tcp -e 1540 -c 2 -a 0 -i 32 -k RTR
h -t 0.242025405 -s 0 -d 4 -p tcp -e 1540 -c 2 -a 0 -i 32 -k RTR
+ -t 0.242025405 -s 0 -d 4 -p tcp -e 1540 -c 2 -a 0 -i 33 -k RTR 
- -t 0.242025405 -s 0 -d 4 -p tcp -e 1540 -c 2 -a 0 -i 33 -k RTR
h -t 0.242025405 -s 0 -d 4 -p tcp -e 1540 -c 2 -a 0 -i 33 -k RTR
r -t 0.256110997 -s 4 -d 4 -p tcp -e 1540 -c 2 -a 0 -i 27 -k AGT
+ -t 0.256110997 -s 4 -d -1 -p ack -e 40 -c 2 -a 0 -i 34 -k AGT 
- -t 0.256110997 -s 4 -d -1 -p ack -e 40 -c 2 -a 0 -i 34 -k AGT
h -t 0.256110997 -s 4 -d -1 -p ack -e 40 -c 2 -a 0 -i 34 -k AGT
+ -t 0.256110997 -s 4 -d 0 -p ack -e 40 -c 2 -a 0 -i 34 -k RTR 
- -t 0.256110997 -s 4 -d 0 -p ack -e 40 -c 2 -a 0 -i 34 -k RTR
h -t 0.256110997 -s 4 -d 0 -p ack -e 40 -c 2 -a 0 -i 34 -k RTR
r -t 0.259523649 -s 0 -d 0 -p ack -e 40 -c 2 -a 0 -i 22 -k AGT
+ -t 0.259523649 -s 0 -d -1 -p tcp -e 1540 -c 2 -a 0 -i 35 -k AGT 
- -t 0.259523649 -s 0 -d -1 -p tcp -e 1540 -c 2 -a 0 -i 35 -k AGT
h -t 0.259523649 -s 0 -d -1 -p tcp -e 1540 -c 2 -a 0 -i 35 -k AGT
+ -t 0.259523649 -s 0 -d -1 -p tcp -e 1540 -c 2 -a 0 -i 36 -k AGT 
- -t 0.259523649 -s 0 -d -1 -p tcp -e 1540 -c 2 -a 0 -i 36 -k AGT
h -t 0.259523649 -s 0 -d -1 -p tcp -e 1540 -c 2 -a 0 -i 36 -k AGT
+ -t 0.259523649 -s 0 -d 4 -p tcp -e 1540 -c 2 -a 0 -i 35 -k RTR 
- -t 0.259523649 -s 0 -d 4 -p tcp -e 1540 -c 2 -a 0 -i 35 -k RTR
h -t 0.259523649 -s 0 -d 4 -p tcp -e 1540 -c 2 -a 0 -i 35 -k RTR
+ -t 0.259523649 -s 0 -d 4 -p tcp -e 1540 -c 2 -a 0 -i 36 -k RTR 
- -t 0.259523649 -s 0 -d 4 -p tcp -e 1540 -c 2 -a 0 -i 36 -k RTR
h -t 0.259523649 -s 0 -d 4 -p tcp -e 1540 -c 2 -a 0 -i 36 -k RTR
r -t 0.262695771 -s 0 -d 0 -p ack -e 40 -c 2 -a 0 -i 23 -k AGT
+ -t 0.262695771 -s 0 -d -1 -p tcp -e 1540 -c 2 -a 0 -i 37 -k AGT 
- -t 0.262695771 -s 0 -d -1 -p tcp -e 1540 -c 2 -a 0 -i 37 -k AGT
h -t 0.262695771 -s 0 -d -1 -p tcp -e 1540 -c 2 -a 0 -i 37 -k AGT
+ -t 0.262695771 -s 0 -d -1 -p tcp -e 1540 -c 2 -a 0 -i 38 -k AGT 
- -t 0.262695771 -s 0 -d -1 -p tcp -e 1540 -c 2 -a 0 -i 38 -k AGT
h -t 0.262695771 -s 0 -d -1 -p tcp -e 1540 -c 2 -a 0 -i 38 -k AGT
+ -t 0.262695771 -s 0 -d 4 -p tcp -e 1540 -c 2 -a 0 -i 37 -k RTR 
- -t 0.262695771 -s 0 -d 4 -p tcp -e 1540 -c 2 -a 0 -i 37 -k RTR
h -t 0.262695771 -s 0 -d 4 -p tcp -e 1540 -c 2 -a 0 -i 37 -k RTR
+ -t 0.262695771 -s 0 -d 4 -p tcp -e 1540 -c 2 -a 0 -i 38 -k RTR 
- -t 0.262695771 -s 0 -d 4 -p tcp -e 1540 -c 2 -a 0 -i 38 -k RTR
h -t 0.262695771 -s 0 -d 4 -p tcp -e 1540 -c 2 -a 0 -i 38 -k RTR
r -t 0.276901362 -s 4 -d 4 -p tcp -e 1540 -c 2 -a 0 -i 28 -k AGT
+ -t 0.276901362 -s 4 -d -1 -p ack -e 40 -c 2 -a 0 -i 39 -k AGT 
- -t 0.276901362 -s 4 -d -1 -p ack -e 40 -c 2 -a 0 -i 39 -k AGT
h -t 0.276901362 -s 4 -d -1 -p ack -e 40 -c 2 -a 0 -i 39 -k AGT
+ -t 0.276901362 -s 4 -d 0 -p ack -e 40 -c 2 -a 0 -i 39 -k RTR 
- -t 0.276901362 -s 4 -d 0 -p ack -e 40 -c 2 -a 0 -i 39 -k RTR
h -t 0.276901362 -s 4 -d 0 -p ack -e 40 -c 2 -a 0 -i 39 -k RTR
r -t 0.278826953 -s 0 -d 0 -p ack -e 40 -c 2 -a 0 -i 24 -k AGT
+ -t 0.278826953 -s 0 -d -1 -p tcp -e 1540 -c 2 -a 0 -i 40 -k AGT 
- -t 0.278826953 -s 0 -d -1 -p tcp -e 1540 -c 2 -a 0 -i 40 -k AGT
h -t 0.278826953 -s 0 -d -1 -p tcp -e 1540 -c 2 -a 0 -i 40 -k AGT
+ -t 0.278826953 -s 0 -d -1 -p tcp -e 1540 -c 2 -a 0 -i 41 -k AGT 
- -t 0.278826953 -s 0 -d -1 -p tcp -e 1540 -c 2 -a 0 -i 41 -k AGT
h -t 0.278826953 -s 0 -d -1 -p tcp -e 1540 -c 2 -a 0 -i 41 -k AGT
+ -t 0.278826953 -s 0 -d 4 -p tcp -e 1540 -c 2 -a 0 -i 40 -k RTR 
- -t 0.278826953 -s 0 -d 4 -p tcp -e 1540 -c 2 -a 0 -i 40 -k RTR
h -t 0.278826953 -s 0 -d 4 -p tcp -e 1540 -c 2 -a 0 -i 40 -k RTR
+ -t 0.278826953 -s 0 -d 4 -p tcp -e 1540 -c 2 -a 0 -i 41 -k RTR 
- -t 0.278826953 -s 0 -d 4 -p tcp -e 1540 -c 2 -a 0 -i 41 -k RTR
h -t 0.278826953 -s 0 -d 4 -p tcp -e 1540 -c 2 -a 0 -i 41 -k RTR
r -t 0.292692545 -s 4 -d 4 -p tcp -e 1540 -c 2 -a 0 -i 32 -k AGT
+ -t 0.292692545 -s 4 -d -1 -p ack -e 40 -c 2 -a 0 -i 42 -k AGT 
- -t 0.292692545 -s 4 -d -1 -p ack -e 40 -c 2 -a 0 -i 42 -k AGT
h -t 0.292692545 -s 4 -d -1 -p ack -e 40 -c 2 -a 0 -i 42 -k AGT
+ -t 0.292692545 -s 4 -d 0 -p ack -e 40 -c 2 -a 0 -i 42 -k RTR 
- -t 0.292692545 -s 4 -d 0 -p ack -e 40 -c 2 -a 0 -i 42 -k RTR
h -t 0.292692545 -s 4 -d 0 -p ack -e 40 -c 2 -a 0 -i 42 -k RTR
r -t 0.306618667 -s 4 -d 4 -p tcp -e 1540 -c 2 -a 0 -i 33 -k AGT
+ -t 0.306618667 -s 4 -d -1 -p ack -e 40 -c 2 -a 0 -i 43 -k AGT 
- -t 0.306618667 -s 4 -d -1 -p ack -e 40 -c 2 -a 0 -i 43 -k AGT
h -t 0.306618667 -s 4 -d -1 -p ack -e 40 -c 2 -a 0 -i 43 -k AGT
+ -t 0.306618667 -s 4 -d 0 -p ack -e 40 -c 2 -a 0 -i 43 -k RTR 
- -t 0.306618667 -s 4 -d 0 -p ack -e 40 -c 2 -a 0 -i 43 -k RTR
h -t 0.306618667 -s 4 -d 0 -p ack -e 40 -c 2 -a 0 -i 43 -k RTR
r -t 0.309371319 -s 0 -d 0 -p ack -e 40 -c 2 -a 0 -i 29 -k AGT
+ -t 0.309371319 -s 0 -d -1 -p tcp -e 1540 -c 2 -a 0 -i 44 -k AGT 
- -t 0.309371319 -s 0 -d -1 -p tcp -e 1540 -c 2 -a 0 -i 44 -k AGT
h -t 0.309371319 -s 0 -d -1 -p tcp -e 1540 -c 2 -a 0 -i 44 -k AGT
+ -t 0.309371319 -s 0 -d -1 -p tcp -e 1540 -c 2 -a 0 -i 45 -k AGT 
- -t 0.309371319 -s 0 -d -1 -p tcp -e 1540 -c 2 -a 0 -i 45 -k AGT
h -t 0.309371319 -s 0 -d -1 -p tcp -e 1540 -c 2 -a 0 -i 45 -k AGT
+ -t 0.309371319 -s 0 -d 4 -p tcp -e 1540 -c 2 -a 0 -i 44 -k RTR 
- -t 0.309371319 -s 0 -d 4 -p tcp -e 1540 -c 2 -a 0 -i 44 -k RTR
h -t 0.309371319 -s 0 -d 4 -p tcp -e 1540 -c 2 -a 0 -i 44 -k RTR
+ -t 0.309371319 -s 0 -d 4 -p tcp -e 1540 -c 2 -a 0 -i 45 -k RTR 
- -t 0.309371319 -s 0 -d 4 -p tcp -e 1540 -c 2 -a 0 -i 45 -k RTR
h -t 0.309371319 -s 0 -d 4 -p tcp -e 1540 -c 2 -a 0 -i 45 -k RTR
r -t 0.311257441 -s 0 -d 0 -p ack -e 40 -c 2 -a 0 -i 30 -k AGT
+ -t 0.311257441 -s 0 -d -1 -p tcp -e 1540 -c 2 -a 0 -i 46 -k AGT 
- -t 0.311257441 -s 0 -d -1 -p tcp -e 1540 -c 2 -a 0 -i 46 -k AGT
h -t 0.311257441 -s 0 -d -1 -p tcp -e 1540 -c 2 -a 0 -i 46 -k AGT
+ -t 0.311257441 -s 0 -d -1 -p tcp -e 1540 -c 2 -a 0 -i 47 -k AGT 
- -t 0.311257441 -s 0 -d -1 -p tcp -e 1540 -c 2 -a 0 -i 47 -k AGT
h -t 0.311257441 -s 0 -d -1 -p tcp -e 1540 -c 2 -a 0 -i 47 -k AGT
+ -t 0.311257441 -s 0 -d 4 -p tcp -e 1540 -c 2 -a 0 -i 46 -k RTR 
- -t 0.311257441 -s 0 -d 4 -p tcp -e 1540 -c 2 -a 0 -i 46 -k RTR
h -t 0.311257441 -s 0 -d 4 -p tcp -e 1540 -c 2 -a 0 -i 46 -k RTR
+ -t 0.311257441 -s 0 -d 4 -p tcp -e 1540 -c 2 -a 0 -i 47 -k RTR 
- -t 0.311257441 -s 0 -d 4 -p tcp -e 1540 -c 2 -a 0 -i 47 -k RTR
h -t 0.311257441 -s 0 -d 4 -p tcp -e 1540 -c 2 -a 0 -i 47 -k RTR
r -t 0.325303032 -s 4 -d 4 -p tcp -e 1540 -c 2 -a 0 -i 35 -k AGT
+ -t 0.325303032 -s 4 -d -1 -p ack -e 40 -c 2 -a 0 -i 48 -k AGT 
- -t 0.325303032 -s 4 -d -1 -p ack -e 40 -c 2 -a 0 -i 48 -k AGT
h -t 0.325303032 -s 4 -d -1 -p ack -e 40 -c 2 -a 0 -i 48 -k AGT
+ -t 0.325303032 -s 4 -d 0 -p ack -e 40 -c 2 -a 0 -i 48 -k RTR 
- -t 0.325303032 -s 4 -d 0 -p ack -e 40 -c 2 -a 0 -i 48 -k RTR
h -t 0.325303032 -s 4 -d 0 -p ack -e 40 -c 2 -a 0 -i 48 -k RTR
r -t 0.327268624 -s 0 -d 0 -p ack -e 40 -c 2 -a 0 -i 31 -k AGT
+ -t 0.327268624 -s 0 -d -1 -p tcp -e 1540 -c 2 -a 0 -i 49 -k AGT 
- -t 0.327268624 -s 0 -d -1 -p tcp -e 1540 -c 2 -a 0 -i 49 -k AGT
h -t 0.327268624 -s 0 -d -1 -p tcp -e 1540 -c 2 -a 0 -i 49 -k AGT
+ -t 0.327268624 -s 0 -d -1 -p tcp -e 1540 -c 2 -a 0 -i 50 -k AGT 
- -t 0.327268624 -s 0 -d -1 -p tcp -e 1540 -c 2 -a 0 -i 50 -k AGT
h -t 0.327268624 -s 0 -d -1 -p tcp -e 1540 -c 2 -a 0 -i 50 -k AGT
+ -t 0.327268624 -s 0 -d 4 -p tcp -e 1540 -c 2 -a 0 -i 49 -k RTR 
- -t 0.327268624 -s 0 -d 4 -p tcp -e 1540 -c 2 -a 0 -i 49 -k RTR
h -t 0.327268624 -s 0 -d 4 -p tcp -e 1540 -c 2 -a 0 -i 49 -k RTR
+ -t 0.327268624 -s 0 -d 4 -p tcp -e 1540 -c 2 -a 0 -i 50 -k RTR 
- -t 0.327268624 -s 0 -d 4 -p tcp -e 1540 -c 2 -a 0 -i 50 -k RTR
h -t 0.327268624 -s 0 -d 4 -p tcp -e 1540 -c 2 -a 0 -i 50 -k RTR
r -t 0.329214745 -s 0 -d 0 -p ack -e 40 -c 2 -a 0 -i 34 -k AGT
+ -t 0.329214745 -s 0 -d -1 -p tcp -e 1540 -c 2 -a 0 -i 51 -k AGT 
- -t 0.329214745 -s 0 -d -1 -p tcp -e 1540 -c 2 -a 0 -i 51 -k AGT
h -t 0.329214745 -s 0 -d -1 -p tcp -e 1540 -c 2 -a 0 -i 51 -k AGT
+ -t 0.329214745 -s 0 -d -1 -p tcp -e 1540 -c 2 -a 0 -i 52 -k AGT 
- -t 0.329214745 -s 0 -d -1 -p tcp -e 1540 -c 2 -a 0 -i 52 -k AGT
h -t 0.329214745 -s 0 -d -1 -p tcp -e 1540 -c 2 -a 0 -i 52 -k AGT
+ -t 0.329214745 -s 0 -d 4 -p tcp -e 1540 -c 2 -a 0 -i 51 -k RTR 
- -t 0.329214745 -s 0 -d 4 -p tcp -e 1540 -c 2 -a 0 -i 51 -k RTR
h -t 0.329214745 -s 0 -d 4 -p tcp -e 1540 -c 2 -a 0 -i 51 -k RTR
+ -t 0.329214745 -s 0 -d 4 -p tcp -e 1540 -c 2 -a 0 -i 52 -k RTR 
- -t 0.329214745 -s 0 -d 4 -p tcp -e 1540 -c 2 -a 0 -i 52 -k RTR
h -t 0.329214745 -s 0 -d 4 -p tcp -e 1540 -c 2 -a 0 -i 52 -k RTR
r -t 0.331100867 -s 0 -d 0 -p ack -e 40 -c 2 -a 0 -i 39 -k AGT
+ -t 0.331100867 -s 0 -d -1 -p tcp -e 1540 -c 2 -a 0 -i 53 -k AGT 
- -t 0.331100867 -s 0 -d -1 -p tcp -e 1540 -c 2 -a 0 -i 53 -k AGT
h -t 0.331100867 -s 0 -d -1 -p tcp -e 1540 -c 2 -a 0 -i 53 -k AGT
+ -t 0.331100867 -s 0 -d -1 -p tcp -e 1540 -c 2 -a 0 -i 54 -k AGT 
- -t 0.331100867 -s 0 -d -1 -p tcp -e 1540 -c 2 -a 0 -i 54 -k AGT
h -t 0.331100867 -s 0 -d -1 -p tcp -e 1540 -c 2 -a 0 -i 54 -k AGT
+ -t 0.331100867 -s 0 -d 4 -p tcp -e 1540 -c 2 -a 0 -i 53 -k RTR 
- -t 0.331100867 -s 0 -d 4 -p tcp -e 1540 -c 2 -a 0 -i 53 -k RTR
h -t 0.331100867 -s 0 -d 4 -p tcp -e 1540 -c 2 -a 0 -i 53 -k RTR
+ -t 0.331100867 -s 0 -d 4 -p tcp -e 1540 -c 2 -a 0 -i 54 -k RTR 
- -t 0.331100867 -s 0 -d 4 -p tcp -e 1540 -c 2 -a 0 -i 54 -k RTR
h -t 0.331100867 -s 0 -d 4 -p tcp -e 1540 -c 2 -a 0 -i 54 -k RTR
r -t 0.345206459 -s 4 -d 4 -p tcp -e 1540 -c 2 -a 0 -i 36 -k AGT
+ -t 0.345206459 -s 4 -d -1 -p ack -e 40 -c 2 -a 0 -i 55 -k AGT 
- -t 0.345206459 -s 4 -d -1 -p ack -e 40 -c 2 -a 0 -i 55 -k AGT
h -t 0.345206459 -s 4 -d -1 -p ack -e 40 -c 2 -a 0 -i 55 -k AGT