s 0.010000000 _0_ AGT  --- 0 tcp 40 [0 0 0 0] ------- [0:0 4:0 32 0] [0 0] 0 0
r 0.010000000 _0_ RTR  --- 0 tcp 40 [0 0 0 0] ------- [0:0 4:0 32 0] [0 0] 0 0
s 0.010000000 _0_ RTR  --- 0 AODV 48 [0 0 0 0] ------- [0:255 -1:255 30 0] [0x2 1 1 [4 0] [0 4]] (REQUEST)
r 0.010988352 _14_ RTR  --- 0 AODV 48 [0 ffffffff 0 800] ------- [0:255 -1:255 30 0] [0x2 1 1 [4 0] [0 4]] (REQUEST)
r 0.010988517 _17_ RTR  --- 0 AODV 48 [0 ffffffff 0 800] ------- [0:255 -1:255 30 0] [0x2 1 1 [4 0] [0 4]] (REQUEST)
r 0.010988530 _13_ RTR  --- 0 AODV 48 [0 ffffffff 0 800] ------- [0:255 -1:255 30 0] [0x2 1 1 [4 0] [0 4]] (REQUEST)
r 0.010988530 _4_ RTR  --- 0 AODV 48 [0 ffffffff 0 800] ------- [0:255 -1:255 30 0] [0x2 1 1 [4 0] [0 4]] (REQUEST)
s 0.010988530 _4_ RTR  --- 0 AODV 44 [0 0 0 0] ------- [4:255 0:255 30 0] [0x4 1 [4 4] 10.000000] (REPLY)
r 0.010988593 _6_ RTR  --- 0 AODV 48 [0 ffffffff 0 800] ------- [0:255 -1:255 30 0] [0x2 1 1 [4 0] [0 4]] (REQUEST)
r 0.010988616 _10_ RTR  --- 0 AODV 48 [0 ffffffff 0 800] ------- [0:255 -1:255 30 0] [0x2 1 1 [4 0] [0 4]] (REQUEST)
r 0.010988758 _15_ RTR  --- 0 AODV 48 [0 ffffffff 0 800] ------- [0:255 -1:255 30 0] [0x2 1 1 [4 0] [0 4]] (REQUEST)
s 0.011869578 _14_ RTR  --- 0 AODV 48 [0 ffffffff 0 800] ------- [14:255 -1:255 29 0] [0x2 2 1 [4 0] [0 4]] (REQUEST)
s 0.013334776 _15_ RTR  --- 0 AODV 48 [0 ffffffff 0 800] ------- [15:255 -1:255 29 0] [0x2 2 1 [4 0] [0 4]] (REQUEST)
s 0.014118211 _6_ RTR  --- 0 AODV 48 [0 ffffffff 0 800] ------- [6:255 -1:255 29 0] [0x2 2 1 [4 0] [0 4]] (REQUEST)
s 0.015400251 _17_ RTR  --- 0 AODV 48 [0 ffffffff 0 800] ------- [17:255 -1:255 29 0] [0x2 2 1 [4 0] [0 4]] (REQUEST)
r 0.015630244 _0_ RTR  --- 0 AODV 44 [13a 0 4 800] ------- [4:255 0:255 30 0] [0x4 1 [4 4] 10.000000] (REPLY)
s 0.015630244 _0_ RTR  --- 0 tcp 40 [0 0 0 0] ------- [0:0 4:0 30 4] [0 0] 0 0
r 0.016862946 _4_ RTR  --- 0 AODV 48 [0 ffffffff e 800] ------- [14:255 -1:255 29 0] [0x2 2 1 [4 0] [0 4]] (REQUEST)
r 0.016862947 _0_ RTR  --- 0 AODV 48 [0 ffffffff e 800] ------- [14:255 -1:255 29 0] [0x2 2 1 [4 0] [0 4]] (REQUEST)
r 0.016862998 _6_ RTR  --- 0 AODV 48 [0 ffffffff e 800] ------- [14:255 -1:255 29 0] [0x2 2 1 [4 0] [0 4]] (REQUEST)
r 0.016863073 _13_ RTR  --- 0 AODV 48 [0 ffffffff e 800] ------- [14:255 -1:255 29 0] [0x2 2 1 [4 0] [0 4]] (REQUEST)
r 0.016863427 _17_ RTR  --- 0 AODV 48 [0 ffffffff e 800] ------- [14:255 -1:255 29 0] [0x2 2 1 [4 0] [0 4]] (REQUEST)
r 0.017901401 _14_ RTR  --- 0 AODV 48 [0 ffffffff 6 800] ------- [6:255 -1:255 29 0] [0x2 2 1 [4 0] [0 4]] (REQUEST)
r 0.017901592 _0_ RTR  --- 0 AODV 48 [0 ffffffff 6 800] ------- [6:255 -1:255 29 0] [0x2 2 1 [4 0] [0 4]] (REQUEST)
r 0.017901739 _4_ RTR  --- 0 AODV 48 [0 ffffffff 6 800] ------- [6:255 -1:255 29 0] [0x2 2 1 [4 0] [0 4]] (REQUEST)
s 0.018980084 _13_ RTR  --- 0 AODV 48 [0 ffffffff 0 800] ------- [13:255 -1:255 29 0] [0x2 2 1 [4 0] [0 4]] (REQUEST)
s 0.019153377 _10_ RTR  --- 0 AODV 48 [0 ffffffff 0 800] ------- [10:255 -1:255 29 0] [0x2 2 1 [4 0] [0 4]] (REQUEST)
r 0.019733183 _4_ AGT  --- 0 tcp 40 [13a 4 0 800] ------- [0:0 4:0 30 4] [0 0] 1 0
s 0.019733183 _4_ AGT  --- 1 ack 40 [0 0 0 0] ------- [4:0 0:0 32 0] [0 0] 0 0
r 0.019733183 _4_ RTR  --- 1 ack 40 [0 0 0 0] ------- [4:0 0:0 32 0] [0 0] 0 0
s 0.019733183 _4_ RTR  --- 1 ack 40 [0 0 0 0] ------- [4:0 0:0 30 0] [0 0] 0 0
r 0.021758775 _0_ AGT  --- 1 ack 40 [13a 0 4 800] ------- [4:0 0:0 30 0] [0 0] 1 0
s 0.021758775 _0_ AGT  --- 2 tcp 1540 [0 0 0 0] ------- [0:0 4:0 32 0] [1 0] 0 0
r 0.021758775 _0_ RTR  --- 2 tcp 1540 [0 0 0 0] ------- [0:0 4:0 32 0] [1 0] 0 0
s 0.021758775 _0_ AGT  --- 3 tcp 1540 [0 0 0 0] ------- [0:0 4:0 32 0] [2 0] 0 0
r 0.021758775 _0_ RTR  --- 3 tcp 1540 [0 0 0 0] ------- [0:0 4:0 32 0] [2 0] 0 0
s 0.021758775 _0_ RTR  --- 2 tcp 1540 [0 0 0 0] ------- [0:0 4:0 30 4] [1 0] 0 0
s 0.021758775 _0_ RTR  --- 3 tcp 1540 [0 0 0 0] ------- [0:0 4:0 30 4] [2 0] 0 0
r 0.035624366 _4_ AGT  --- 2 tcp 1540 [13a 4 0 800] ------- [0:0 4:0 30 4] [1 0] 1 0
s 0.035624366 _4_ AGT  --- 4 ack 40 [0 0 0 0] ------- [4:0 0:0 32 0] [1 0] 0 0
r 0.035624366 _4_ RTR  --- 4 ack 40 [0 0 0 0] ------- [4:0 0:0 32 0] [1 0] 0 0
s 0.035624366 _4_ RTR  --- 4 ack 40 [0 0 0 0] ------- [4:0 0:0 30 0] [1 0] 0 0
r 0.036976754 _4_ RTR  --- 0 AODV 48 [0 ffffffff d 800] ------- [13:255 -1:255 29 0] [0x2 2 1 [4 0] [0 4]] (REQUEST)
r 0.036977038 _14_ RTR  --- 0 AODV 48 [0 ffffffff d 800] ------- [13:255 -1:255 29 0] [0x2 2 1 [4 0] [0 4]] (REQUEST)
r 0.036977089 _0_ RTR  --- 0 AODV 48 [0 ffffffff d 800] ------- [13:255 -1:255 29 0] [0x2 2 1 [4 0] [0 4]] (REQUEST)
r 0.038588345 _0_ AGT  --- 4 ack 40 [13a 0 4 800] ------- [4:0 0:0 30 0] [1 0] 1 0
s 0.038588345 _0_ AGT  --- 5 tcp 1540 [0 0 0 0] ------- [0:0 4:0 32 0] [3 0] 0 0
r 0.038588345 _0_ RTR  --- 5 tcp 1540 [0 0 0 0] ------- [0:0 4:0 32 0] [3 0] 0 0
s 0.038588345 _0_ AGT  --- 6 tcp 1540 [0 0 0 0] ------- [0:0 4:0 32 0] [4 0] 0 0
r 0.038588345 _0_ RTR  --- 6 tcp 1540 [0 0 0 0] ------- [0:0 4:0 32 0] [4 0] 0 0
s 0.038588345 _0_ RTR  --- 5 tcp 1540 [0 0 0 0] ------- [0:0 4:0 30 4] [3 0] 0 0
s 0.038588345 _0_ RTR  --- 6 tcp 1540 [0 0 0 0] ------- [0:0 4:0 30 4] [4 0] 0 0
r 0.039891365 _9_ RTR  --- 0 AODV 48 [0 ffffffff f 800] ------- [15:255 -1:255 29 0] [0x2 2 1 [4 0] [0 4]] (REQUEST)
r 0.039891369 _10_ RTR  --- 0 AODV 48 [0 ffffffff f 800] ------- [15:255 -1:255 29 0] [0x2 2 1 [4 0] [0 4]] (REQUEST)
r 0.039891403 _17_ RTR  --- 0 AODV 48 [0 ffffffff f 800] ------- [15:255 -1:255 29 0] [0x2 2 1 [4 0] [0 4]] (REQUEST)
r 0.039891549 _1_ RTR  --- 0 AODV 48 [0 ffffffff f 800] ------- [15:255 -1:255 29 0] [0x2 2 1 [4 0] [0 4]] (REQUEST)
r 0.039891856 _0_ RTR  --- 0 AODV 48 [0 ffffffff f 800] ------- [15:255 -1:255 29 0] [0x2 2 1 [4 0] [0 4]] (REQUEST)
s 0.042062959 _9_ RTR  --- 0 AODV 48 [0 ffffffff f 800] ------- [9:255 -1:255 28 0] [0x2 3 1 [4 0] [0 4]] (REQUEST)
s 0.042303805 _1_ RTR  --- 0 AODV 48 [0 ffffffff f 800] ------- [1:255 -1:255 28 0] [0x2 3 1 [4 0] [0 4]] (REQUEST)
r 0.053523448 _4_ AGT  --- 3 tcp 1540 [13a 4 0 800] ------- [0:0 4:0 30 4] [2 0] 1 0
s 0.053523448 _4_ AGT  --- 7 ack 40 [0 0 0 0] ------- [4:0 0:0 32 0] [2 0] 0 0
r 0.053523448 _4_ RTR  --- 7 ack 40 [0 0 0 0] ------- [4:0 0:0 32 0] [2 0] 0 0
s 0.053523448 _4_ RTR  --- 7 ack 40 [0 0 0 0] ------- [4:0 0:0 30 0] [2 0] 0 0
r 0.067709569 _4_ AGT  --- 5 tcp 1540 [13a 4 0 800] ------- [0:0 4:0 30 4] [3 0] 1 0
s 0.067709569 _4_ AGT  --- 8 ack 40 [0 0 0 0] ------- [4:0 0:0 32 0] [3 0] 0 0
r 0.067709569 _4_ RTR  --- 8 ack 40 [0 0 0 0] ------- [4:0 0:0 32 0] [3 0] 0 0
s 0.067709569 _4_ RTR  --- 8 ack 40 [0 0 0 0] ------- [4:0 0:0 30 0] [3 0] 0 0
r 0.069869391 _15_ RTR  --- 0 AODV 48 [0 ffffffff 9 800] ------- [9:255 -1:255 28 0] [0x2 3 1 [4 0] [0 4]] (REQUEST)
r 0.069869477 _1_ RTR  --- 0 AODV 48 [0 ffffffff 9 800] ------- [9:255 -1:255 28 0] [0x2 3 1 [4 0] [0 4]] (REQUEST)
r 0.069869624 _10_ RTR  --- 0 AODV 48 [0 ffffffff 9 800] ------- [9:255 -1:255 28 0] [0x2 3 1 [4 0] [0 4]] (REQUEST)
r 0.069869683 _17_ RTR  --- 0 AODV 48 [0 ffffffff 9 800] ------- [9:255 -1:255 28 0] [0x2 3 1 [4 0] [0 4]] (REQUEST)
r 0.070787784 _10_ RTR  --- 0 AODV 48 [0 ffffffff 11 800] ------- [17:255 -1:255 29 0] [0x2 2 1 [4 0] [0 4]] (REQUEST)
r 0.070787988 _15_ RTR  --- 0 AODV 48 [0 ffffffff 11 800] ------- [17:255 -1:255 29 0] [0x2 2 1 [4 0] [0 4]] (REQUEST)
r 0.070788201 _0_ RTR  --- 0 AODV 48 [0 ffffffff 11 800] ------- [17:255 -1:255 29 0] [0x2 2 1 [4 0] [0 4]] (REQUEST)
r 0.070788242 _9_ RTR  --- 0 AODV 48 [0 ffffffff 11 800] ------- [17:255 -1:255 29 0] [0x2 2 1 [4 0] [0 4]] (REQUEST)
r 0.070788419 _1_ RTR  --- 0 AODV 48 [0 ffffffff 11 800] ------- [17:255 -1:255 29 0] [0x2 2 1 [4 0] [0 4]] (REQUEST)
r 0.070788515 _14_ RTR  --- 0 AODV 48 [0 ffffffff 11 800] ------- [17:255 -1:255 29 0] [0x2 2 1 [4 0] [0 4]] (REQUEST)
r 0.071785886 _17_ RTR  --- 0 AODV 48 [0 ffffffff a 800] ------- [10:255 -1:255 29 0] [0x2 2 1 [4 0] [0 4]] (REQUEST)
r 0.071786056 _15_ RTR  --- 0 AODV 48 [0 ffffffff a 800] ------- [10:255 -1:255 29 0] [0x2 2 1 [4 0] [0 4]] (REQUEST)
r 0.071786284 _9_ RTR  --- 0 AODV 48 [0 ffffffff a 800] ------- [10:255 -1:255 29 0] [0x2 2 1 [4 0] [0 4]] (REQUEST)
r 0.071786401 _0_ RTR  --- 0 AODV 48 [0 ffffffff a 800] ------- [10:255 -1:255 29 0] [0x2 2 1 [4 0] [0 4]] (REQUEST)
r 0.071786505 _1_ RTR  --- 0 AODV 48 [0 ffffffff a 800] ------- [10:255 -1:255 29 0] [0x2 2 1 [4 0] [0 4]] (REQUEST)
r 0.072824858 _9_ RTR  --- 0 AODV 48 [0 ffffffff 1 800] ------- [1:255 -1:255 28 0] [0x2 3 1 [4 0] [0 4]] (REQUEST)
r 0.072824956 _15_ RTR  --- 0 AODV 48 [0 ffffffff 1 800] ------- [1:255 -1:255 28 0] [0x2 3 1 [4 0] [0 4]] (REQUEST)
r 0.072825225 _10_ RTR  --- 0 AODV 48 [0 ffffffff 1 800] ------- [1:255 -1:255 28 0] [0x2 3 1 [4 0] [0 4]] (REQUEST)
r 0.072825241 _17_ RTR  --- 0 AODV 48 [0 ffffffff 1 800] ------- [1:255 -1:255 28 0] [0x2 3 1 [4 0] [0 4]] (REQUEST)
r 0.087541169 _4_ AGT  --- 6 tcp 1540 [13a 4 0 800] ------- [0:0 4:0 30 4] [4 0] 1 0
s 0.087541169 _4_ AGT  --- 9 ack 40 [0 0 0 0] ------- [4:0 0:0 32 0] [4 0] 0 0
r 0.087541169 _4_ RTR  --- 9 ack 40 [0 0 0 0] ------- [4:0 0:0 32 0] [4 0] 0 0
s 0.087541169 _4_ RTR  --- 9 ack 40 [0 0 0 0] ------- [4:0 0:0 30 0] [4 0] 0 0
r 0.089526760 _0_ AGT  --- 7 ack 40 [13a 0 4 800] ------- [4:0 0:0 30 0] [2 0] 1 0
s 0.089526760 _0_ AGT  --- 10 tcp 1540 [0 0 0 0] ------- [0:0 4:0 32 0] [5 0] 0 0
r 0.089526760 _0_ RTR  --- 10 tcp 1540 [0 0 0 0] ------- [0:0 4:0 32 0] [5 0] 0 0
s 0.089526760 _0_ AGT  --- 11 tcp 1540 [0 0 0 0] ------- [0:0 4:0 32 0] [6 0] 0 0
r 0.089526760 _0_ RTR  --- 11 tcp 1540 [0 0 0 0] ------- [0:0 4:0 32 0] [6 0] 0 0
s 0.089526760 _0_ RTR  --- 10 tcp 1540 [0 0 0 0] ------- [0:0 4:0 30 4] [5 0] 0 0
s 0.089526760 _0_ RTR  --- 11 tcp 1540 [0 0 0 0] ------- [0:0 4:0 30 4] [6 0] 0 0
r 0.103392352 _4_ AGT  --- 10 tcp 1540 [13a 4 0 800] ------- [0:0 4:0 30 4] [5 0] 1 0
s 0.103392352 _4_ AGT  --- 12 ack 40 [0 0 0 0] ------- [4:0 0:0 32 0] [5 0] 0 0
r 0.103392352 _4_ RTR  --- 12 ack 40 [0 0 0 0] ------- [4:0 0:0 32 0] [5 0] 0 0
s 0.103392352 _4_ RTR  --- 12 ack 40 [0 0 0 0] ------- [4:0 0:0 30 0] [5 0] 0 0
r 0.117278473 _4_ AGT  --- 11 tcp 1540 [13a 4 0 800] ------- [0:0 4:0 30 4] [6 0] 1 0
s 0.117278473 _4_ AGT  --- 13 ack 40 [0 0 0 0] ------- [4:0 0:0 32 0] [6 0] 0 0
r 0.117278473 _4_ RTR  --- 13 ack 40 [0 0 0 0] ------- [4:0 0:0 32 0] [6 0] 0 0
s 0.117278473 _4_ RTR  --- 13 ack 40 [0 0 0 0] ------- [4:0 0:0 30 0] [6 0] 0 0
r 0.119584065 _0_ AGT  --- 8 ack 40 [13a 0 4 800] ------- [4:0 0:0 30 0] [3 0] 1 0
s 0.119584065 _0_ AGT  --- 14 tcp 1540 [0 0 0 0] ------- [0:0 4:0 32 0] [7 0] 0 0
r 0.119584065 _0_ RTR  --- 14 tcp 1540 [0 0 0 0] ------- [0:0 4:0 32 0] [7 0] 0 0
s 0.119584065 _0_ AGT  --- 15 tcp 1540 [0 0 0 0] ------- [0:0 4:0 32 0] [8 0] 0 0
r 0.119584065 _0_ RTR  --- 15 tcp 1540 [0 0 0 0] ------- [0:0 4:0 32 0] [8 0] 0 0
s 0.119584065 _0_ RTR  --- 14 tcp 1540 [0 0 0 0] ------- [0:0 4:0 30 4] [7 0] 0 0
s 0.119584065 _0_ RTR  --- 15 tcp 1540 [0 0 0 0] ------- [0:0 4:0 30 4] [8 0] 0 0
r 0.133749656 _4_ AGT  --- 14 tcp 1540 [13a 4 0 800] ------- [0:0 4:0 30 4] [7 0] 1 0
s 0.133749656 _4_ AGT  --- 16 ack 40 [0 0 0 0] ------- [4:0 0:0 32 0] [7 0] 0 0
r 0.133749656 _4_ RTR  --- 16 ack 40 [0 0 0 0] ------- [4:0 0:0 32 0] [7 0] 0 0
s 0.133749656 _4_ RTR  --- 16 ack 40 [0 0 0 0] ------- [4:0 0:0 30 0] [7 0] 0 0
r 0.135735248 _0_ AGT  --- 9 ack 40 [13a 0 4 800] ------- [4:0 0:0 30 0] [4 0] 1 0
s 0.135735248 _0_ AGT  --- 17 tcp 1540 [0 0 0 0] ------- [0:0 4:0 32 0] [9 0] 0 0
r 0.135735248 _0_ RTR  --- 17 tcp 1540 [0 0 0 0] ------- [0:0 4:0 32 0] [9 0] 0 0
s 0.135735248 _0_ AGT  --- 18 tcp 1540 [0 0 0 0] ------- [0:0 4:0 32 0] [10 0] 0 0
r 0.135735248 _0_ RTR  --- 18 tcp 1540 [0 0 0 0] ------- [0:0 4:0 32 0] [10 0] 0 0
s 0.135735248 _0_ RTR  --- 17 tcp 1540 [0 0 0 0] ------- [0:0 4:0 30 4] [9 0] 0 0
s 0.135735248 _0_ RTR  --- 18 tcp 1540 [0 0 0 0] ------- [0:0 4:0 30 4] [10 0] 0 0
r 0.149700839 _4_ AGT  --- 15 tcp 1540 [13a 4 0 800] ------- [0:0 4:0 30 4] [8 0] 1 0
s 0.149700839 _4_ AGT  --- 19 ack 40 [0 0 0 0] ------- [4:0 0:0 32 0] [8 0] 0 0
r 0.149700839 _4_ RTR  --- 19 ack 40 [0 0 0 0] ------- [4:0 0:0 32 0] [8 0] 0 0
s 0.149700839 _4_ RTR  --- 19 ack 40 [0 0 0 0] ------- [4:0 0:0 30 0] [8 0] 0 0
r 0.151566430 _0_ AGT  --- 12 ack 40 [13a 0 4 800] ------- [4:0 0:0 30 0] [5 0] 1 0
s 0.151566430 _0_ AGT  --- 20 tcp 1540 [0 0 0 0] ------- [0:0 4:0 32 0] [11 0] 0 0
r 0.151566430 _0_ RTR  --- 20 tcp 1540 [0 0 0 0] ------- [0:0 4:0 32 0] [11 0] 0 0
s 0.151566430 _0_ AGT  --- 21 tcp 1540 [0 0 0 0] ------- [0:0 4:0 32 0] [12 0] 0 0
r 0.151566430 _0_ RTR  --- 21 tcp 1540 [0 0 0 0] ------- [0:0 4:0 32 0] [12 0] 0 0
s 0.151566430 _0_ RTR  --- 20 tcp 1540 [0 0 0 0] ------- [0:0 4:0 30 4] [11 0] 0 0
s 0.151566430 _0_ RTR  --- 21 tcp 1540 [0 0 0 0] ------- [0:0 4:0 30 4] [12 0] 0 0
r 0.165632022 _4_ AGT  --- 17 tcp 1540 [13a 4 0 800] ------- [0:0 4:0 30 4] [9 0] 1 0
s 0.165632022 _4_ AGT  --- 22 ack 40 [0 0 0 0] ------- [4:0 0:0 32 0] [9 0] 0 0
r 0.165632022 _4_ RTR  --- 22 ack 40 [0 0 0 0] ------- [4:0 0:0 32 0] [9 0] 0 0
s 0.165632022 _4_ RTR  --- 22 ack 40 [0 0 0 0] ------- [4:0 0:0 30 0] [9 0] 0 0
r 0.179458144 _4_ AGT  --- 18 tcp 1540 [13a 4 0 800] ------- [0:0 4:0 30 4] [10 0] 1 0
s 0.179458144 _4_ AGT  --- 23 ack 40 [0 0 0 0] ------- [4:0 0:0 32 0] [10 0] 0 0
r 0.179458144 _4_ RTR  --- 23 ack 40 [0 0 0 0] ------- [4:0 0:0 32 0] [10 0] 0 0
s 0.179458144 _4_ RTR  --- 23 ack 40 [0 0 0 0] ------- [4:0 0:0 30 0] [10 0] 0 0
r 0.193504265 _4_ AGT  --- 20 tcp 1540 [13a 4 0 800] ------- [0:0 4:0 30 4] [11 0] 1 0
s 0.193504265 _4_ AGT  --- 24 ack 40 [0 0 0 0] ------- [4:0 0:0 32 0] [11 0] 0 0
r 0.193504265 _4_ RTR  --- 24 ack 40 [0 0 0 0] ------- [4:0 0:0 32 0] [11 0] 0 0
s 0.193504265 _4_ RTR  --- 24 ack 40 [0 0 0 0] ------- [4:0 0:0 30 0] [11 0] 0 0
r 0.195349857 _0_ AGT  --- 13 ack 40 [13a 0 4 800] ------- [4:0 0:0 30 0] [6 0] 1 0
s 0.195349857 _0_ AGT  --- 25 tcp 1540 [0 0 0 0] ------- [0:0 4:0 32 0] [13 0] 0 0
r 0.195349857 _0_ RTR  --- 25 tcp 1540 [0 0 0 0] ------- [0:0 4:0 32 0] [13 0] 0 0
s 0.195349857 _0_ AGT  --- 26 tcp 1540 [0 0 0 0] ------- [0:0 4:0 32 0] [14 0] 0 0
r 0.195349857 _0_ RTR  --- 26 tcp 1540 [0 0 0 0] ------- [0:0 4:0 32 0] [14 0] 0 0
s 0.195349857 _0_ RTR  --- 25 tcp 1540 [0 0 0 0] ------- [0:0 4:0 30 4] [13 0] 0 0
s 0.195349857 _0_ RTR  --- 26 tcp 1540 [0 0 0 0] ------- [0:0 4:0 30 4] [14 0] 0 0
r 0.197335979 _0_ AGT  --- 16 ack 40 [13a 0 4 800] ------- [4:0 0:0 30 0] [7 0] 1 0
s 0.197335979 _0_ AGT  --- 27 tcp 1540 [0 0 0 0] ------- [0:0 4:0 32 0] [15 0] 0 0
r 0.197335979 _0_ RTR  --- 27 tcp 1540 [0 0 0 0] ------- [0:0 4:0 32 0] [15 0] 0 0
s 0.197335979 _0_ AGT  --- 28 tcp 1540 [0 0 0 0] ------- [0:0 4:0 32 0] [16 0] 0 0
r 0.197335979 _0_ RTR  --- 28 tcp 1540 [0 0 0 0] ------- [0:0 4:0 32 0] [16 0] 0 0
s 0.197335979 _0_ RTR  --- 27 tcp 1540 [0 0 0 0] ------- [0:0 4:0 30 4] [15 0] 0 0
s 0.197335979 _0_ RTR  --- 28 tcp 1540 [0 0 0 0] ------- [0:0 4:0 30 4] [16 0] 0 0
r 0.211321570 _4_ AGT  --- 21 tcp 1540 [13a 4 0 800] ------- [0:0 4:0 30 4] [12 0] 1 0
s 0.211321570 _4_ AGT  --- 29 ack 40 [0 0 0 0] ------- [4:0 0:0 32 0] [12 0] 0 0
r 0.211321570 _4_ RTR  --- 29 ack 40 [0 0 0 0] ------- [4:0 0:0 32 0] [12 0] 0 0
s 0.211321570 _4_ RTR  --- 29 ack 40 [0 0 0 0] ------- [4:0 0:0 30 0] [12 0] 0 0
r 0.226093692 _4_ AGT  --- 25 tcp 1540 [13a 4 0 800] ------- [0:0 4:0 30 4] [13 0] 1 0
s 0.226093692 _4_ AGT  --- 30 ack 40 [0 0 0 0] ------- [4:0 0:0 32 0] [13 0] 0 0
r 0.226093692 _4_ RTR  --- 30 ack 40 [0 0 0 0] ------- [4:0 0:0 32 0] [13 0] 0 0
s 0.226093692 _4_ RTR  --- 30 ack 40 [0 0 0 0] ------- [4:0 0:0 30 0] [13 0] 0 0
r 0.240159814 _4_ AGT  --- 26 tcp 1540 [13a 4 0 800] ------- [0:0 4:0 30 4] [14 0] 1 0
s 0.240159814 _4_ AGT  --- 31 ack 40 [0 0 0 0] ------- [4:0 0:0 32 0] [14 0] 0 0
r 0.240159814 _4_ RTR  --- 31 ack 40 [0 0 0 0] ------- [4:0 0:0 32 0] [14 0] 0 0
s 0.240159814 _4_ RTR  --- 31 ack 40 [0 0 0 0] ------- [4:0 0:0 30 0] [14 0] 0 0
r 0.242025405 _0_ AGT  --- 19 ack 40 [13a 0 4 800] ------- [4:0 0:0 30 0] [8 0] 1 0
s 0.242025405 _0_ AGT  --- 32 tcp 1540 [0 0 0 0] ------- [0:0 4:0 32 0] [17 0] 0 0
r 0.242025405 _0_ RTR  --- 32 tcp 1540 [0 0 0 0] ------- [0:0 4:0 32 0] [17 0] 0 0
s 0.242025405 _0_ AGT  --- 33 tcp 1540 [0 0 0 0] ------- [0:0 4:0 32 0] [18 0] 0 0
r 0.242025405 _0_ RTR  --- 33 tcp 1540 [0 0 0 0] ------- [0:0 4:0 32 0] [18 0] 0 0
s 0.242025405 _0_ RTR  --- 32 tcp 1540 [0 0 0 0] ------- [0:0 4:0 30 4] [17 0] 0 0
s 0.242025405 _0_ RTR  --- 33 tcp 1540 [0 0 0 0] ------- [0:0 4:0 30 4] [18 0] 0 0
r 0.256110997 _4_ AGT  --- 27 tcp 1540 [13a 4 0 800] ------- [0:0 4:0 30 4] [15 0] 1 0
s 0.256110997 _4_ AGT  --- 34 ack 40 [0 0 0 0] ------- [4:0 0:0 32 0] [15 0] 0 0
r 0.256110997 _4_ RTR  --- 34 ack 40 [0 0 0 0] ------- [4:0 0:0 32 0] [15 0] 0 0
s 0.256110997 _4_ RTR  --- 34 ack 40 [0 0 0 0] ------- [4:0 0:0 30 0] [15 0] 0 0
r 0.259523649 _0_ AGT  --- 22 ack 40 [13a 0 4 800] ------- [4:0 0:0 30 0] [9 0] 1 0
s 0.259523649 _0_ AGT  --- 35 tcp 1540 [0 0 0 0] ------- [0:0 4:0 32 0] [19 0] 0 0
r 0.259523649 _0_ RTR  --- 35 tcp 1540 [0 0 0 0] ------- [0:0 4:0 32 0] [19 0] 0 0
s 0.259523649 _0_ AGT  --- 36 tcp 1540 [0 0 0 0] ------- [0:0 4:0 32 0] [20 0] 0 0
r 0.259523649 _0_ RTR  --- 36 tcp 1540 [0 0 0 0] ------- [0:0 4:0 32 0] [20 0] 0 0
s 0.259523649 _0_ RTR  --- 35 tcp 1540 [0 0 0 0] ------- [0:0 4:0 30 4] [19 0] 0 0
s 0.259523649 _0_ RTR  --- 36 tcp 1540 [0 0 0 0] ------- [0:0 4:0 30 4] [20 0] 0 0
r 0.262695771 _0_ AGT  --- 23 ack 40 [13a 0 4 800] ------- [4:0 0:0 30 0] [10 0] 1 0
s 0.262695771 _0_ AGT  --- 37 tcp 1540 [0 0 0 0] ------- [0:0 4:0 32 0] [21 0] 0 0
r 0.262695771 _0_ RTR  --- 37 tcp 1540 [0 0 0 0] ------- [0:0 4:0 32 0] [21 0] 0 0
s 0.262695771 _0_ AGT  --- 38 tcp 1540 [0 0 0 0] ------- [0:0 4:0 32 0] [22 0] 0 0
r 0.262695771 _0_ RTR  --- 38 tcp 1540 [0 0 0 0] ------- [0:0 4:0 32 0] [22 0] 0 0
s 0.262695771 _0_ RTR  --- 37 tcp 1540 [0 0 0 0] ------- [0:0 4:0 30 4] [21 0] 0 0
s 0.262695771 _0_ RTR  --- 38 tcp 1540 [0 0 0 0] ------- [0:0 4:0 30 4] [22 0] 0 0
r 0.276901362 _4_ AGT  --- 28 tcp 1540 [13a 4 0 800] ------- [0:0 4:0 30 4] [16 0] 1 0
s 0.276901362 _4_ AGT  --- 39 ack 40 [0 0 0 0] ------- [4:0 0:0 32 0] [16 0] 0 0
r 0.276901362 _4_ RTR  --- 39 ack 40 [0 0 0 0] ------- [4:0 0:0 32 0] [16 0] 0 0
s 0.276901362 _4_ RTR  --- 39 ack 40 [0 0 0 0] ------- [4:0 0:0 30 0] [16 0] 0 0
r 0.278826953 _0_ AGT  --- 24 ack 40 [13a 0 4 800] ------- [4:0 0:0 30 0] [11 0] 1 0
s 0.278826953 _0_ AGT  --- 40 tcp 1540 [0 0 0 0] ------- [0:0 4:0 32 0] [23 0] 0 0
r 0.278826953 _0_ RTR  --- 40 tcp 1540 [0 0 0 0] ------- [0:0 4:0 32 0] [23 0] 0 0
s 0.278826953 _0_ AGT  --- 41 tcp 1540 [0 0 0 0] ------- [0:0 4:0 32 0] [24 0] 0 0
r 0.278826953 _0_ RTR  --- 41 tcp 1540 [0 0 0 0] ------- [0:0 4:0 32 0] [24 0] 0 0
s 0.278826953 _0_ RTR  --- 40 tcp 1540 [0 0 0 0] ------- [0:0 4:0 30 4] [23 0] 0 0
s 0.278826953 _0_ RTR  --- 41 tcp 1540 [0 0 0 0] ------- [0:0 4:0 30 4] [24 0] 0 0
r 0.292692545 _4_ AGT  --- 32 tcp 1540 [13a 4 0 800] ------- [0:0 4:0 30 4] [17 0] 1 0
s 0.292692545 _4_ AGT  --- 42 ack 40 [0 0 0 0] ------- [4:0 0:0 32 0] [17 0] 0 0
r 0.292692545 _4_ RTR  --- 42 ack 40 [0 0 0 0] ------- [4:0 0:0 32 0] [17 0] 0 0
s 0.292692545 _4_ RTR  --- 42 ack 40 [0 0 0 0] ------- [4:0 0:0 30 0] [17 0] 0 0
r 0.306618667 _4_ AGT  --- 33 tcp 1540 [13a 4 0 800] ------- [0:0 4:0 30 4] [18 0] 1 0
s 0.306618667 _4_ AGT  --- 43 ack 40 [0 0 0 0] ------- [4:0 0:0 32 0] [18 0] 0 0
r 0.306618667 _4_ RTR  --- 43 ack 40 [0 0 0 0] ------- [4:0 0:0 32 0] [18 0] 0 0
s 0.306618667 _4_ RTR  --- 43 ack 40 [0 0 0 0] ------- [4:0 0:0 30 0] [18 0] 0 0
r 0.309371319 _0_ AGT  --- 29 ack 40 [13a 0 4 800] ------- [4:0 0:0 30 0] [12 0] 1 0
s 0.309371319 _0_ AGT  --- 44 tcp 1540 [0 0 0 0] ------- [0:0 4:0 32 0] [25 0] 0 0
r 0.309371319 _0_ RTR  --- 44 tcp 1540 [0 0 0 0] ------- [0:0 4:0 32 0] [25 0] 0 0
s 0.309371319 _0_ AGT  --- 45 tcp 1540 [0 0 0 0] ------- [0:0 4:0 32 0] [26 0] 0 0
r 0.309371319 _0_ RTR  --- 45 tcp 1540 [0 0 0 0] ------- [0:0 4:0 32 0] [26 0] 0 0
s 0.309371319 _0_ RTR  --- 44 tcp 1540 [0 0 0 0] ------- [0:0 4:0 30 4] [25 0] 0 0
s 0.309371319 _0_ RTR  --- 45 tcp 1540 [0 0 0 0] ------- [0:0 4:0 30 4] [26 0] 0 0
r 0.311257441 _0_ AGT  --- 30 ack 40 [13a 0 4 800] ------- [4:0 0:0 30 0] [13 0] 1 0
s 0.311257441 _0_ AGT  --- 46 tcp 1540 [0 0 0 0] ------- [0:0 4:0 32 0] [27 0] 0 0
r 0.311257441 _0_ RTR  --- 46 tcp 1540 [0 0 0 0] ------- [0:0 4:0 32 0] [27 0] 0 0
s 0.311257441 _0_ AGT  --- 47 tcp 1540 [0 0 0 0] ------- [0:0 4:0 32 0] [28 0] 0 0
r 0.311257441 _0_ RTR  --- 47 tcp 1540 [0 0 0 0] ------- [0:0 4:0 32 0] [28 0] 0 0
s 0.311257441 _0_ RTR  --- 46 tcp 1540 [0 0 0 0] ------- [0:0 4:0 30 4] [27 0] 0 0
s 0.311257441 _0_ RTR  --- 47 tcp 1540 [0 0 0 0] ------- [0:0 4:0 30 4] [28 0] 0 0
r 0.325303032 _4_ AGT  --- 35 tcp 1540 [13a 4 0 800] ------- [0:0 4:0 30 4] [19 0] 1 0
s 0.325303032 _4_ AGT  --- 48 ack 40 [0 0 0 0] ------- [4:0 0:0 32 0] [19 0] 0 0
r 0.325303032 _4_ RTR  --- 48 ack 40 [0 0 0 0] ------- [4:0 0:0 32 0] [19 0] 0 0
s 0.325303032 _4_ RTR  --- 48 ack 40 [0 0 0 0] ------- [4:0 0:0 30 0] [19 0] 0 0
r 0.327268624 _0_ AGT  --- 31 ack 40 [13a 0 4 800] ------- [4:0 0:0 30 0] [14 0] 1 0
s 0.327268624 _0_ AGT  --- 49 tcp 1540 [0 0 0 0] ------- [0:0 4:0 32 0] [29 0] 0 0
r 0.327268624 _0_ RTR  --- 49 tcp 1540 [0 0 0 0] ------- [0:0 4:0 32 0] [29 0] 0 0
s 0.327268624 _0_ AGT  --- 50 tcp 1540 [0 0 0 0] ------- [0:0 4:0 32 0] [30 0] 0 0
r 0.327268624 _0_ RTR  --- 50 tcp 1540 [0 0 0 0] ------- [0:0 4:0 32 0] [30 0] 0 0
s 0.327268624 _0_ RTR  --- 49 tcp 1540 [0 0 0 0] ------- [0:0 4:0 30 4] [29 0] 0 0
s 0.327268624 _0_ RTR  --- 50 tcp 1540 [0 0 0 0] ------- [0:0 4:0 30 4] [30 0] 0 0
r 0.329214745 _0_ AGT  --- 34 ack 40 [13a 0 4 800] ------- [4:0 0:0 30 0] [15 0] 1 0
s 0.329214745 _0_ AGT  --- 51 tcp 1540 [0 0 0 0] ------- [0:0 4:0 32 0] [31 0] 0 0
r 0.329214745 _0_ RTR  --- 51 tcp 1540 [0 0 0 0] ------- [0:0 4:0 32 0] [31 0] 0 0
s 0.329214745 _0_ AGT  --- 52 tcp 1540 [0 0 0 0] ------- [0:0 4:0 32 0] [32 0] 0 0
r 0.329214745 _0_ RTR  --- 52 tcp 1540 [0 0 0 0] ------- [0:0 4:0 32 0] [32 0] 0 0
s 0.329214745 _0_ RTR  --- 51 tcp 1540 [0 0 0 0] ------- [0:0 4:0 30 4] [31 0] 0 0
s 0.329214745 _0_ RTR  --- 52 tcp 1540 [0 0 0 0] ------- [0:0 4:0 30 4] [32 0] 0 0
r 0.331100867 _0_ AGT  --- 39 ack 40 [13a 0 4 800] ------- [4:0 0:0 30 0] [16 0] 1 0
s 0.331100867 _0_ AGT  --- 53 tcp 1540 [0 0 0 0] ------- [0:0 4:0 32 0] [33 0] 0 0
r 0.331100867 _0_ RTR  --- 53 tcp 1540 [0 0 0 0] ------- [0:0 4:0 32 0] [33 0] 0 0
s 0.331100867 _0_ AGT  --- 54 tcp 1540 [0 0 0 0] ------- [0:0 4:0 32 0] [34 0] 0 0
r 0.331100867 _0_ RTR  --- 54 tcp 1540 [0 0 0 0] ------- [0:0 4:0 32 0] [34 0] 0 0
s 0.331100867 _0_ RTR  --- 53 tcp 1540 [0 0 0 0] ------- [0:0 4:0 30 4] [33 0] 0 0
s 0.331100867 _0_ RTR  --- 54 tcp 1540 [0 0 0 0] ------- [0:0 4:0 30 4] [34 0] 0 0
r 0.345206459 _4_ AGT  --- 36 tcp 1540 [13a 4 0 800] ------- [0:0 4:0 30 4] [20 0] 1 0
s 0.345206459 _4_ AGT  --- 55 ack 40 [0 0 0 0] ------- [4:0 0:0 32 0] [20 0] 0 0
r 0.345206459 _4_ RTR  --- 55 ack 40 [0 0 0 0] ------- [4:0 0:0 32 0] [20 0] 0 0
s 0.345206459 _4_ RTR  --- 55 ack 40 [0 0 0 0] ------- [4:0 0:0 30 0] [20 0] 0 0
r 0.359152581 _4_ AGT  --- 37 tcp 1540 [13a 4 0 800] ------- [0:0 4:0 30 4] [21 0] 1 0
s 0.359152581 _4_ AGT  --- 56 ack 40 [0 0 0 0] ------- [4:0 0:0 32 0] [21 0] 0 0
r 0.359152581 _4_ RTR  --- 56 ack 40 [0 0 0 0] ------- [4:0 0:0 32 0] [21 0] 0 0
s 0.359152581 _4_ RTR  --- 56 ack 40 [0 0 0 0] ------- [4:0 0:0 30 0] [21 0] 0 0
r 0.361158172 _0_ AGT  --- 42 ack 40 [13a 0 4 800] ------- [4:0 0:0 30 0] [17 0] 1 0
s 0.361158172 _0_ AGT  --- 57 tcp 1540 [0 0 0 0] ------- [0:0 4:0 32 0] [35 0] 0 0
r 0.361158172 _0_ RTR  --- 57 tcp 1540 [0 0 0 0] ------- [0:0 4:0 32 0] [35 0] 0 0
s 0.361158172 _0_ AGT  --- 58 tcp 1540 [0 0 0 0] ------- [0:0 4:0 32 0] [36 0] 0 0
r 0.361158172 _0_ RTR  --- 58 tcp 1540 [0 0 0 0] ------- [0:0 4:0 32 0] [36 0] 0 0
s 0.361158172 _0_ RTR  --- 57 tcp 1540 [0 0 0 0] ------- [0:0 4:0 30 4] [35 0] 0 0
s 0.361158172 _0_ RTR  --- 58 tcp 1540 [0 0 0 0] ------- [0:0 4:0 30 4] [36 0] 0 0
r 0.375403763 _4_ AGT  --- 38 tcp 1540 [13a 4 0 800] ------- [0:0 4:0 30 4] [22 0] 1 0
s 0.375403763 _4_ AGT  --- 59 ack 40 [0 0 0 0] ------- [4:0 0:0 32 0] [22 0] 0 0
r 0.375403763 _4_ RTR  --- 59 ack 40 [0 0 0 0] ------- [4:0 0:0 32 0] [22 0] 0 0
s 0.375403763 _4_ RTR  --- 59 ack 40 [0 0 0 0] ------- [4:0 0:0 30 0] [22 0] 0 0
r 0.377249355 _0_ AGT  --- 43 ack 40 [13a 0 4 800] ------- [4:0 0:0 30 0] [18 0] 1 0
s 0.377249355 _0_ AGT  --- 60 tcp 1540 [0 0 0 0] ------- [0:0 4:0 32 0] [37 0] 0 0
r 0.377249355 _0_ RTR  --- 60 tcp 1540 [0 0 0 0] ------- [0:0 4:0 32 0] [37 0] 0 0
s 0.377249355 _0_ AGT  --- 61 tcp 1540 [0 0 0 0] ------- [0:0 4:0 32 0] [38 0] 0 0
r 0.377249355 _0_ RTR  --- 61 tcp 1540 [0 0 0 0] ------- [0:0 4:0 32 0] [38 0] 0 0
s 0.377249355 _0_ RTR  --- 60 tcp 1540 [0 0 0 0] ------- [0:0 4:0 30 4] [37 0] 0 0
s 0.377249355 _0_ RTR  --- 61 tcp 1540 [0 0 0 0] ------- [0:0 4:0 30 4] [38 0] 0 0
r 0.379375477 _0_ AGT  --- 48 ack 40 [13a 0 4 800] ------- [4:0 0:0 30 0] [19 0] 1 0
s 0.379375477 _0_ AGT  --- 62 tcp 1540 [0 0 0 0] ------- [0:0 4:0 32 0] [39 0] 0 0
r 0.379375477 _0_ RTR  --- 62 tcp 1540 [0 0 0 0] ------- [0:0 4:0 32 0] [39 0] 0 0
s 0.379375477 _0_ RTR  --- 62 tcp 1540 [0 0 0 0] ------- [0:0 4:0 30 4] [39 0] 0 0
r 0.393421068 _4_ AGT  --- 40 tcp 1540 [13a 4 0 800] ------- [0:0 4:0 30 4] [23 0] 1 0
s 0.393421068 _4_ AGT  --- 63 ack 40 [0 0 0 0] ------- [4:0 0:0 32 0] [23 0] 0 0
r 0.393421068 _4_ RTR  --- 63 ack 40 [0 0 0 0] ------- [4:0 0:0 32 0] [23 0] 0 0
s 0.393421068 _4_ RTR  --- 63 ack 40 [0 0 0 0] ------- [4:0 0:0 30 0] [23 0] 0 0
r 0.395346659 _0_ AGT  --- 55 ack 40 [13a 0 4 800] ------- [4:0 0:0 30 0] [20 0] 1 0
s 0.395346659 _0_ AGT  --- 64 tcp 1540 [0 0 0 0] ------- [0:0 4:0 32 0] [40 0] 0 0
r 0.395346659 _0_ RTR  --- 64 tcp 1540 [0 0 0 0] ------- [0:0 4:0 32 0] [40 0] 0 0
s 0.395346659 _0_ RTR  --- 64 tcp 1540 [0 0 0 0] ------- [0:0 4:0 30 4] [40 0] 0 0
r 0.409392251 _4_ AGT  --- 41 tcp 1540 [13a 4 0 800] ------- [0:0 4:0 30 4] [24 0] 1 0
s 0.409392251 _4_ AGT  --- 65 ack 40 [0 0 0 0] ------- [4:0 0:0 32 0] [24 0] 0 0
r 0.409392251 _4_ RTR  --- 65 ack 40 [0 0 0 0] ------- [4:0 0:0 32 0] [24 0] 0 0
s 0.409392251 _4_ RTR  --- 65 ack 40 [0 0 0 0] ------- [4:0 0:0 30 0] [24 0] 0 0
r 0.423258372 _4_ AGT  --- 44 tcp 1540 [13a 4 0 800] ------- [0:0 4:0 30 4] [25 0] 1 0
s 0.423258372 _4_ AGT  --- 66 ack 40 [0 0 0 0] ------- [4:0 0:0 32 0] [25 0] 0 0
r 0.423258372 _4_ RTR  --- 66 ack 40 [0 0 0 0] ------- [4:0 0:0 32 0] [25 0] 0 0
s 0.423258372 _4_ RTR  --- 66 ack 40 [0 0 0 0] ------- [4:0 0:0 30 0] [25 0] 0 0
r 0.425183964 _0_ AGT  --- 56 ack 40 [13a 0 4 800] ------- [4:0 0:0 30 0] [21 0] 1 0
s 0.425183964 _0_ AGT  --- 67 tcp 1540 [0 0 0 0] ------- [0:0 4:0 32 0] [41 0] 0 0
r 0.425183964 _0_ RTR  --- 67 tcp 1540 [0 0 0 0] ------- [0:0 4:0 32 0] [41 0] 0 0
s 0.425183964 _0_ RTR  --- 67 tcp 1540 [0 0 0 0] ------- [0:0 4:0 30 4] [41 0] 0 0
r 0.427230086 _0_ AGT  --- 59 ack 40 [13a 0 4 800] ------- [4:0 0:0 30 0] [22 0] 1 0
s 0.427230086 _0_ AGT  --- 68 tcp 1540 [0 0 0 0] ------- [0:0 4:0 32 0] [42 0] 0 0
r 0.427230086 _0_ RTR  --- 68 tcp 1540 [0 0 0 0] ------- [0:0 4:0 32 0] [42 0] 0 0
s 0.427230086 _0_ RTR  --- 68 tcp 1540 [0 0 0 0] ------- [0:0 4:0 30 4] [42 0] 0 0
r 0.429236208 _0_ AGT  --- 63 ack 40 [13a 0 4 800] ------- [4:0 0:0 30 0] [23 0] 1 0
s 0.429236208 _0_ AGT  --- 69 tcp 1540 [0 0 0 0] ------- [0:0 4:0 32 0] [43 0] 0 0
r 0.429236208 _0_ RTR  --- 69 tcp 1540 [0 0 0 0] ------- [0:0 4:0 32 0] [43 0] 0 0
s 0.429236208 _0_ RTR  --- 69 tcp 1540 [0 0 0 0] ------- [0:0 4:0 30 4] [43 0] 0 0
r 0.443161799 _4_ AGT  --- 45 tcp 1540 [13a 4 0 800] ------- [0:0 4:0 30 4] [26 0] 1 0
s 0.443161799 _4_ AGT  --- 70 ack 40 [0 0 0 0] ------- [4:0 0:0 32 0] [26 0] 0 0
r 0.443161799 _4_ RTR  --- 70 ack 40 [0 0 0 0] ------- [4:0 0:0 32 0] [26 0] 0 0
s 0.443161799 _4_ RTR  --- 70 ack 40 [0 0 0 0] ------- [4:0 0:0 30 0] [26 0] 0 0
r 0.445067390 _0_ AGT  --- 65 ack 40 [13a 0 4 800] ------- [4:0 0:0 30 0] [24 0] 1 0
s 0.445067390 _0_ AGT  --- 71 tcp 1540 [0 0 0 0] ------- [0:0 4:0 32 0] [44 0] 0 0
r 0.445067390 _0_ RTR  --- 71 tcp 1540 [0 0 0 0] ------- [0:0 4:0 32 0] [44 0] 0 0
s 0.445067390 _0_ RTR  --- 71 tcp 1540 [0 0 0 0] ------- [0:0 4:0 30 4] [44 0] 0 0
r 0.459252982 _4_ AGT  --- 46 tcp 1540 [13a 4 0 800] ------- [0:0 4:0 30 4] [27 0] 1 0
s 0.459252982 _4_ AGT  --- 72 ack 40 [0 0 0 0] ------- [4:0 0:0 32 0] [27 0] 0 0
r 0.459252982 _4_ RTR  --- 72 ack 40 [0 0 0 0] ------- [4:0 0:0 32 0] [27 0] 0 0
s 0.459252982 _4_ RTR  --- 72 ack 40 [0 0 0 0] ------- [4:0 0:0 30 0] [27 0] 0 0
r 0.461118573 _0_ AGT  --- 66 ack 40 [13a 0 4 800] ------- [4:0 0:0 30 0] [25 0] 1 0
s 0.461118573 _0_ AGT  --- 73 tcp 1540 [0 0 0 0] ------- [0:0 4:0 32 0] [45 0] 0 0
r 0.461118573 _0_ RTR  --- 73 tcp 1540 [0 0 0 0] ------- [0:0 4:0 32 0] [45 0] 0 0
s 0.461118573 _0_ RTR  --- 73 tcp 1540 [0 0 0 0] ------- [0:0 4:0 30 4] [45 0] 0 0
r 0.475044164 _4_ AGT  --- 47 tcp 1540 [13a 4 0 800] ------- [0:0 4:0 30 4] [28 0] 1 0
s 0.475044164 _4_ AGT  --- 74 ack 40 [0 0 0 0] ------- [4:0 0:0 32 0] [28 0] 0 0
r 0.475044164 _4_ RTR  --- 74 ack 40 [0 0 0 0] ------- [4:0 0:0 32 0] [28 0] 0 0
s 0.475044164 _4_ RTR  --- 74 ack 40 [0 0 0 0] ------- [4:0 0:0 30 0] [28 0] 0 0
r 0.476949756 _0_ AGT  --- 70 ack 40 [13a 0 4 800] ------- [4:0 0:0 30 0] [26 0] 1 0
s 0.476949756 _0_ AGT  --- 75 tcp 1540 [0 0 0 0] ------- [0:0 4:0 32 0] [46 0] 0 0
r 0.476949756 _0_ RTR  --- 75 tcp 1540 [0 0 0 0] ------- [0:0 4:0 32 0] [46 0] 0 0
s 0.476949756 _0_ RTR  --- 75 tcp 1540 [0 0 0 0] ------- [0:0 4:0 30 4] [46 0] 0 0
r 0.478775878 _0_ AGT  --- 72 ack 40 [13a 0 4 800] ------- [4:0 0:0 30 0] [27 0] 1 0
s 0.478775878 _0_ AGT  --- 76 tcp 1540 [0 0 0 0] ------- [0:0 4:0 32 0] [47 0] 0 0
r 0.478775878 _0_ RTR  --- 76 tcp 1540 [0 0 0 0] ------- [0:0 4:0 32 0] [47 0] 0 0
s 0.478775878 _0_ RTR  --- 76 tcp 1540 [0 0 0 0] ------- [0:0 4:0 30 4] [47 0] 0 0