n -t * -s 0  -x 768 -y 654 -Z 0 -z 25  -v circle -c black
n -t * -s 1  -x 210 -y 143 -Z 0 -z 25  -v circle -c black
n -t * -s 2  -x 759 -y 802 -Z 0 -z 25  -v circle -c black
n -t * -s 3  -x 198 -y 251 -Z 0 -z 25  -v circle -c black
n -t * -s 4  -x 1006 -y 860 -Z 0 -z 25  -v circle -c black
n -t * -s 5  -x 128 -y 76 -Z 0 -z 25  -v circle -c black
n -t * -s 6  -x 663 -y 591 -Z 0 -z 25  -v circle -c black
n -t * -s 7  -x 748 -y 205 -Z 0 -z 25  -v circle -c black
n -t * -s 8  -x 513 -y 569 -Z 0 -z 25  -v circle -c black
n -t * -s 9  -x 316 -y 917 -Z 0 -z 25  -v circle -c black
V -t * -v 1.0a5 -a 0
W -t * -x 1000 -y 1000
A -t * -n 1 -p 0 -o 0x7fffffff -c 30 -a 1
A -t * -h 1 -m 1073741823 -s 0
n -t 1.000000 -s 0 -x 768.000000 -y 654.000000 -U 1.168874 -V -3.825406 -T 9.410765
n -t 1.000000 -s 1 -x 210.000000 -y 143.000000 -U 1.559134 -V 1.252638 -T 300.166620
n -t 1.000000 -s 2 -x 759.000000 -y 802.000000 -U -0.637077 -V -0.770800 -T 792.682786
n -t 1.000000 -s 3 -x 198.000000 -y 251.000000 -U 3.655246 -V 8.224304 -T 22.980668
n -t 1.000000 -s 4 -x 1006.000000 -y 860.000000 -U -5.283598 -V -2.843165 -T 166.363892
n -t 1.000000 -s 5 -x 128.000000 -y 76.000000 -U 4.617988 -V 6.532548 -T 112.819685
n -t 1.000000 -s 6 -x 663.000000 -y 591.000000 -U -5.629527 -V -5.684050 -T 73.363180
n -t 1.000000 -s 7 -x 748.000000 -y 205.000000 -U -1.971190 -V 7.753348 -T 22.828847
n -t 1.000000 -s 8 -x 513.000000 -y 569.000000 -U 0.000000 -V -0.000000 -T 0.000000
n -t 1.000000 -s 9 -x 316.000000 -y 917.000000 -U -1.523480 -V -7.853598 -T 84.674561
+ -t 1.000000000 -s 0 -d -1 -p tcp -e 40 -c 2 -a 0 -i 0 -k AGT 
- -t 1.000000000 -s 0 -d -1 -p tcp -e 40 -c 2 -a 0 -i 0 -k AGT
h -t 1.000000000 -s 0 -d -1 -p tcp -e 40 -c 2 -a 0 -i 0 -k AGT
+ -t 1.000000000 -s 0 -d -1 -p AODV -e 48 -c 2 -a 0 -i 0 -k RTR 
- -t 1.000000000 -s 0 -d -1 -p AODV -e 48 -c 2 -a 0 -i 0 -k RTR
h -t 1.000000000 -s 0 -d -1 -p AODV -e 48 -c 2 -a 0 -i 0 -k RTR
r -t 1.000988408 -s 6 -d -1 -p AODV -e 48 -c 2 -a 0 -i 0 -k RTR
r -t 1.000988494 -s 2 -d -1 -p AODV -e 48 -c 2 -a 0 -i 0 -k RTR
+ -t 1.001869635 -s 6 -d -1 -p AODV -e 48 -c 2 -a 0 -i 0 -k RTR 
- -t 1.001869635 -s 6 -d -1 -p AODV -e 48 -c 2 -a 0 -i 0 -k RTR
h -t 1.001869635 -s 6 -d -1 -p AODV -e 48 -c 2 -a 0 -i 0 -k RTR
r -t 1.002818043 -s 0 -d -1 -p AODV -e 48 -c 2 -a 0 -i 0 -k RTR
r -t 1.002818140 -s 8 -d -1 -p AODV -e 48 -c 2 -a 0 -i 0 -k RTR
r -t 1.002818408 -s 2 -d -1 -p AODV -e 48 -c 2 -a 0 -i 0 -k RTR
+ -t 1.005400228 -s 2 -d -1 -p AODV -e 48 -c 2 -a 0 -i 0 -k RTR 
- -t 1.005400228 -s 2 -d -1 -p AODV -e 48 -c 2 -a 0 -i 0 -k RTR
h -t 1.005400228 -s 2 -d -1 -p AODV -e 48 -c 2 -a 0 -i 0 -k RTR
r -t 1.006588722 -s 0 -d -1 -p AODV -e 48 -c 2 -a 0 -i 0 -k RTR
r -t 1.006589001 -s 6 -d -1 -p AODV -e 48 -c 2 -a 0 -i 0 -k RTR
+ -t 1.010982901 -s 8 -d -1 -p AODV -e 48 -c 2 -a 0 -i 0 -k RTR 
- -t 1.010982901 -s 8 -d -1 -p AODV -e 48 -c 2 -a 0 -i 0 -k RTR
h -t 1.010982901 -s 8 -d -1 -p AODV -e 48 -c 2 -a 0 -i 0 -k RTR
r -t 1.012191406 -s 6 -d -1 -p AODV -e 48 -c 2 -a 0 -i 0 -k RTR
+ -t 3.000000000 -s 0 -d -1 -p AODV -e 48 -c 2 -a 0 -i 0 -k RTR 
- -t 3.000000000 -s 0 -d -1 -p AODV -e 48 -c 2 -a 0 -i 0 -k RTR
h -t 3.000000000 -s 0 -d -1 -p AODV -e 48 -c 2 -a 0 -i 0 -k RTR
r -t 3.000988454 -s 6 -d -1 -p AODV -e 48 -c 2 -a 0 -i 0 -k RTR
r -t 3.000988515 -s 2 -d -1 -p AODV -e 48 -c 2 -a 0 -i 0 -k RTR
+ -t 3.002126598 -s 2 -d -1 -p AODV -e 48 -c 2 -a 0 -i 0 -k RTR 
- -t 3.002126598 -s 2 -d -1 -p AODV -e 48 -c 2 -a 0 -i 0 -k RTR
h -t 3.002126598 -s 2 -d -1 -p AODV -e 48 -c 2 -a 0 -i 0 -k RTR
r -t 3.003315113 -s 0 -d -1 -p AODV -e 48 -c 2 -a 0 -i 0 -k RTR
r -t 3.003315410 -s 4 -d -1 -p AODV -e 48 -c 2 -a 0 -i 0 -k RTR
+ -t 3.003315410 -s 4 -d 2 -p AODV -e 44 -c 2 -a 0 -i 0 -k RTR 
- -t 3.003315410 -s 4 -d 2 -p AODV -e 44 -c 2 -a 0 -i 0 -k RTR
h -t 3.003315410 -s 4 -d 2 -p AODV -e 44 -c 2 -a 0 -i 0 -k RTR
r -t 3.003315414 -s 6 -d -1 -p AODV -e 48 -c 2 -a 0 -i 0 -k RTR
+ -t 3.007389130 -s 6 -d -1 -p AODV -e 48 -c 2 -a 0 -i 0 -k RTR 
- -t 3.007389130 -s 6 -d -1 -p AODV -e 48 -c 2 -a 0 -i 0 -k RTR
h -t 3.007389130 -s 6 -d -1 -p AODV -e 48 -c 2 -a 0 -i 0 -k RTR
+ -t 3.008184097 -s 2 -d 0 -p AODV -e 44 -c 2 -a 0 -i 0 -k RTR 
- -t 3.008184097 -s 2 -d 0 -p AODV -e 44 -c 2 -a 0 -i 0 -k RTR
h -t 3.008184097 -s 2 -d 0 -p AODV -e 44 -c 2 -a 0 -i 0 -k RTR
r -t 3.010415367 -s 0 -d -1 -p AODV -e 48 -c 2 -a 0 -i 0 -k RTR
r -t 3.010415377 -s 8 -d -1 -p AODV -e 48 -c 2 -a 0 -i 0 -k RTR
r -t 3.010415730 -s 2 -d -1 -p AODV -e 48 -c 2 -a 0 -i 0 -k RTR
+ -t 3.014468460 -s 0 -d 2 -p tcp -e 40 -c 2 -a 0 -i 0 -k RTR 
- -t 3.014468460 -s 0 -d 2 -p tcp -e 40 -c 2 -a 0 -i 0 -k RTR
h -t 3.014468460 -s 0 -d 2 -p tcp -e 40 -c 2 -a 0 -i 0 -k RTR
+ -t 3.016434007 -s 2 -d 4 -p tcp -e 40 -c 2 -a 0 -i 0 -k RTR 
- -t 3.016434007 -s 2 -d 4 -p tcp -e 40 -c 2 -a 0 -i 0 -k RTR
h -t 3.016434007 -s 2 -d 4 -p tcp -e 40 -c 2 -a 0 -i 0 -k RTR
r -t 3.018480444 -s 4 -d 4 -p tcp -e 40 -c 2 -a 0 -i 0 -k AGT
+ -t 3.018480444 -s 4 -d -1 -p ack -e 40 -c 2 -a 0 -i 1 -k AGT 
- -t 3.018480444 -s 4 -d -1 -p ack -e 40 -c 2 -a 0 -i 1 -k AGT
h -t 3.018480444 -s 4 -d -1 -p ack -e 40 -c 2 -a 0 -i 1 -k AGT
+ -t 3.018480444 -s 4 -d 2 -p ack -e 40 -c 2 -a 0 -i 1 -k RTR 
- -t 3.018480444 -s 4 -d 2 -p ack -e 40 -c 2 -a 0 -i 1 -k RTR
h -t 3.018480444 -s 4 -d 2 -p ack -e 40 -c 2 -a 0 -i 1 -k RTR
+ -t 3.019036050 -s 8 -d -1 -p AODV -e 48 -c 2 -a 0 -i 0 -k RTR 
- -t 3.019036050 -s 8 -d -1 -p AODV -e 48 -c 2 -a 0 -i 0 -k RTR
h -t 3.019036050 -s 8 -d -1 -p AODV -e 48 -c 2 -a 0 -i 0 -k RTR
+ -t 3.022366880 -s 2 -d 0 -p ack -e 40 -c 2 -a 0 -i 1 -k RTR 
- -t 3.022366880 -s 2 -d 0 -p ack -e 40 -c 2 -a 0 -i 1 -k RTR
h -t 3.022366880 -s 2 -d 0 -p ack -e 40 -c 2 -a 0 -i 1 -k RTR
r -t 3.024392427 -s 0 -d 0 -p ack -e 40 -c 2 -a 0 -i 1 -k AGT
+ -t 3.024392427 -s 0 -d -1 -p tcp -e 1540 -c 2 -a 0 -i 2 -k AGT 
- -t 3.024392427 -s 0 -d -1 -p tcp -e 1540 -c 2 -a 0 -i 2 -k AGT
h -t 3.024392427 -s 0 -d -1 -p tcp -e 1540 -c 2 -a 0 -i 2 -k AGT
+ -t 3.024392427 -s 0 -d -1 -p tcp -e 1540 -c 2 -a 0 -i 3 -k AGT 
- -t 3.024392427 -s 0 -d -1 -p tcp -e 1540 -c 2 -a 0 -i 3 -k AGT
h -t 3.024392427 -s 0 -d -1 -p tcp -e 1540 -c 2 -a 0 -i 3 -k AGT
+ -t 3.024392427 -s 0 -d 2 -p tcp -e 1540 -c 2 -a 0 -i 2 -k RTR 
- -t 3.024392427 -s 0 -d 2 -p tcp -e 1540 -c 2 -a 0 -i 2 -k RTR
h -t 3.024392427 -s 0 -d 2 -p tcp -e 1540 -c 2 -a 0 -i 2 -k RTR
+ -t 3.024392427 -s 0 -d 2 -p tcp -e 1540 -c 2 -a 0 -i 3 -k RTR 
- -t 3.024392427 -s 0 -d 2 -p tcp -e 1540 -c 2 -a 0 -i 3 -k RTR
h -t 3.024392427 -s 0 -d 2 -p tcp -e 1540 -c 2 -a 0 -i 3 -k RTR
+ -t 3.038737974 -s 2 -d 4 -p tcp -e 1540 -c 2 -a 0 -i 2 -k RTR 
- -t 3.038737974 -s 2 -d 4 -p tcp -e 1540 -c 2 -a 0 -i 2 -k RTR
h -t 3.038737974 -s 2 -d 4 -p tcp -e 1540 -c 2 -a 0 -i 2 -k RTR
r -t 3.052764409 -s 4 -d 4 -p tcp -e 1540 -c 2 -a 0 -i 2 -k AGT
+ -t 3.052764409 -s 4 -d -1 -p ack -e 40 -c 2 -a 0 -i 4 -k AGT 
- -t 3.052764409 -s 4 -d -1 -p ack -e 40 -c 2 -a 0 -i 4 -k AGT
h -t 3.052764409 -s 4 -d -1 -p ack -e 40 -c 2 -a 0 -i 4 -k AGT
+ -t 3.052764409 -s 4 -d 2 -p ack -e 40 -c 2 -a 0 -i 4 -k RTR 
- -t 3.052764409 -s 4 -d 2 -p ack -e 40 -c 2 -a 0 -i 4 -k RTR
h -t 3.052764409 -s 4 -d 2 -p ack -e 40 -c 2 -a 0 -i 4 -k RTR
+ -t 3.054650844 -s 2 -d 0 -p ack -e 40 -c 2 -a 0 -i 4 -k RTR 
- -t 3.054650844 -s 2 -d 0 -p ack -e 40 -c 2 -a 0 -i 4 -k RTR
h -t 3.054650844 -s 2 -d 0 -p ack -e 40 -c 2 -a 0 -i 4 -k RTR
r -t 3.056556392 -s 0 -d 0 -p ack -e 40 -c 2 -a 0 -i 4 -k AGT
+ -t 3.056556392 -s 0 -d -1 -p tcp -e 1540 -c 2 -a 0 -i 5 -k AGT 
- -t 3.056556392 -s 0 -d -1 -p tcp -e 1540 -c 2 -a 0 -i 5 -k AGT
h -t 3.056556392 -s 0 -d -1 -p tcp -e 1540 -c 2 -a 0 -i 5 -k AGT
+ -t 3.056556392 -s 0 -d -1 -p tcp -e 1540 -c 2 -a 0 -i 6 -k AGT 
- -t 3.056556392 -s 0 -d -1 -p tcp -e 1540 -c 2 -a 0 -i 6 -k AGT
h -t 3.056556392 -s 0 -d -1 -p tcp -e 1540 -c 2 -a 0 -i 6 -k AGT
+ -t 3.056556392 -s 0 -d 2 -p tcp -e 1540 -c 2 -a 0 -i 5 -k RTR 
- -t 3.056556392 -s 0 -d 2 -p tcp -e 1540 -c 2 -a 0 -i 5 -k RTR
h -t 3.056556392 -s 0 -d 2 -p tcp -e 1540 -c 2 -a 0 -i 5 -k RTR
+ -t 3.056556392 -s 0 -d 2 -p tcp -e 1540 -c 2 -a 0 -i 6 -k RTR 
- -t 3.056556392 -s 0 -d 2 -p tcp -e 1540 -c 2 -a 0 -i 6 -k RTR
h -t 3.056556392 -s 0 -d 2 -p tcp -e 1540 -c 2 -a 0 -i 6 -k RTR
+ -t 3.070741940 -s 2 -d 4 -p tcp -e 1540 -c 2 -a 0 -i 3 -k RTR 
- -t 3.070741940 -s 2 -d 4 -p tcp -e 1540 -c 2 -a 0 -i 3 -k RTR
h -t 3.070741940 -s 2 -d 4 -p tcp -e 1540 -c 2 -a 0 -i 3 -k RTR
r -t 3.084708374 -s 4 -d 4 -p tcp -e 1540 -c 2 -a 0 -i 3 -k AGT
+ -t 3.084708374 -s 4 -d -1 -p ack -e 40 -c 2 -a 0 -i 7 -k AGT 
- -t 3.084708374 -s 4 -d -1 -p ack -e 40 -c 2 -a 0 -i 7 -k AGT
h -t 3.084708374 -s 4 -d -1 -p ack -e 40 -c 2 -a 0 -i 7 -k AGT
+ -t 3.084708374 -s 4 -d 2 -p ack -e 40 -c 2 -a 0 -i 7 -k RTR 
- -t 3.084708374 -s 4 -d 2 -p ack -e 40 -c 2 -a 0 -i 7 -k RTR
h -t 3.084708374 -s 4 -d 2 -p ack -e 40 -c 2 -a 0 -i 7 -k RTR
+ -t 3.086734807 -s 2 -d 0 -p ack -e 40 -c 2 -a 0 -i 7 -k RTR 
- -t 3.086734807 -s 2 -d 0 -p ack -e 40 -c 2 -a 0 -i 7 -k RTR
h -t 3.086734807 -s 2 -d 0 -p ack -e 40 -c 2 -a 0 -i 7 -k RTR
+ -t 3.100750565 -s 2 -d 4 -p tcp -e 1540 -c 2 -a 0 -i 5 -k RTR 
- -t 3.100750565 -s 2 -d 4 -p tcp -e 1540 -c 2 -a 0 -i 5 -k RTR
h -t 3.100750565 -s 2 -d 4 -p tcp -e 1540 -c 2 -a 0 -i 5 -k RTR
+ -t 3.114576631 -s 2 -d 4 -p tcp -e 1540 -c 2 -a 0 -i 6 -k RTR 
- -t 3.114576631 -s 2 -d 4 -p tcp -e 1540 -c 2 -a 0 -i 6 -k RTR
h -t 3.114576631 -s 2 -d 4 -p tcp -e 1540 -c 2 -a 0 -i 6 -k RTR
r -t 3.116502181 -s 0 -d 0 -p ack -e 40 -c 2 -a 0 -i 7 -k AGT
+ -t 3.116502181 -s 0 -d -1 -p tcp -e 1540 -c 2 -a 0 -i 8 -k AGT 
- -t 3.116502181 -s 0 -d -1 -p tcp -e 1540 -c 2 -a 0 -i 8 -k AGT
h -t 3.116502181 -s 0 -d -1 -p tcp -e 1540 -c 2 -a 0 -i 8 -k AGT
+ -t 3.116502181 -s 0 -d -1 -p tcp -e 1540 -c 2 -a 0 -i 9 -k AGT 
- -t 3.116502181 -s 0 -d -1 -p tcp -e 1540 -c 2 -a 0 -i 9 -k AGT
h -t 3.116502181 -s 0 -d -1 -p tcp -e 1540 -c 2 -a 0 -i 9 -k AGT
+ -t 3.116502181 -s 0 -d 2 -p tcp -e 1540 -c 2 -a 0 -i 8 -k RTR 
- -t 3.116502181 -s 0 -d 2 -p tcp -e 1540 -c 2 -a 0 -i 8 -k RTR
h -t 3.116502181 -s 0 -d 2 -p tcp -e 1540 -c 2 -a 0 -i 8 -k RTR
+ -t 3.116502181 -s 0 -d 2 -p tcp -e 1540 -c 2 -a 0 -i 9 -k RTR 
- -t 3.116502181 -s 0 -d 2 -p tcp -e 1540 -c 2 -a 0 -i 9 -k RTR
h -t 3.116502181 -s 0 -d 2 -p tcp -e 1540 -c 2 -a 0 -i 9 -k RTR
+ -t 3.130447731 -s 2 -d 4 -p tcp -e 1540 -c 2 -a 0 -i 8 -k RTR 
- -t 3.130447731 -s 2 -d 4 -p tcp -e 1540 -c 2 -a 0 -i 8 -k RTR
h -t 3.130447731 -s 2 -d 4 -p tcp -e 1540 -c 2 -a 0 -i 8 -k RTR
+ -t 3.144433798 -s 2 -d 4 -p tcp -e 1540 -c 2 -a 0 -i 9 -k RTR 
- -t 3.144433798 -s 2 -d 4 -p tcp -e 1540 -c 2 -a 0 -i 9 -k RTR
h -t 3.144433798 -s 2 -d 4 -p tcp -e 1540 -c 2 -a 0 -i 9 -k RTR
r -t 3.158300228 -s 4 -d 4 -p tcp -e 1540 -c 2 -a 0 -i 5 -k AGT
+ -t 3.158300228 -s 4 -d -1 -p ack -e 40 -c 2 -a 0 -i 10 -k AGT 
- -t 3.158300228 -s 4 -d -1 -p ack -e 40 -c 2 -a 0 -i 10 -k AGT
h -t 3.158300228 -s 4 -d -1 -p ack -e 40 -c 2 -a 0 -i 10 -k AGT
+ -t 3.158300228 -s 4 -d 2 -p ack -e 40 -c 2 -a 0 -i 10 -k RTR 
- -t 3.158300228 -s 4 -d 2 -p ack -e 40 -c 2 -a 0 -i 10 -k RTR
h -t 3.158300228 -s 4 -d 2 -p ack -e 40 -c 2 -a 0 -i 10 -k RTR
r -t 3.172207468 -s 4 -d 4 -p tcp -e 1540 -c 2 -a 0 -i 6 -k AGT
+ -t 3.172207468 -s 4 -d -1 -p ack -e 40 -c 2 -a 0 -i 11 -k AGT 
- -t 3.172207468 -s 4 -d -1 -p ack -e 40 -c 2 -a 0 -i 11 -k AGT
h -t 3.172207468 -s 4 -d -1 -p ack -e 40 -c 2 -a 0 -i 11 -k AGT
+ -t 3.172207468 -s 4 -d 2 -p ack -e 40 -c 2 -a 0 -i 11 -k RTR 
- -t 3.172207468 -s 4 -d 2 -p ack -e 40 -c 2 -a 0 -i 11 -k RTR
h -t 3.172207468 -s 4 -d 2 -p ack -e 40 -c 2 -a 0 -i 11 -k RTR
+ -t 3.174113896 -s 2 -d 0 -p ack -e 40 -c 2 -a 0 -i 10 -k RTR 
- -t 3.174113896 -s 2 -d 0 -p ack -e 40 -c 2 -a 0 -i 10 -k RTR
h -t 3.174113896 -s 2 -d 0 -p ack -e 40 -c 2 -a 0 -i 10 -k RTR
+ -t 3.175941134 -s 2 -d 0 -p ack -e 40 -c 2 -a 0 -i 11 -k RTR 
- -t 3.175941134 -s 2 -d 0 -p ack -e 40 -c 2 -a 0 -i 11 -k RTR
h -t 3.175941134 -s 2 -d 0 -p ack -e 40 -c 2 -a 0 -i 11 -k RTR
r -t 3.190007563 -s 4 -d 4 -p tcp -e 1540 -c 2 -a 0 -i 8 -k AGT
+ -t 3.190007563 -s 4 -d -1 -p ack -e 40 -c 2 -a 0 -i 12 -k AGT 
- -t 3.190007563 -s 4 -d -1 -p ack -e 40 -c 2 -a 0 -i 12 -k AGT
h -t 3.190007563 -s 4 -d -1 -p ack -e 40 -c 2 -a 0 -i 12 -k AGT
+ -t 3.190007563 -s 4 -d 2 -p ack -e 40 -c 2 -a 0 -i 12 -k RTR 
- -t 3.190007563 -s 4 -d 2 -p ack -e 40 -c 2 -a 0 -i 12 -k RTR
h -t 3.190007563 -s 4 -d 2 -p ack -e 40 -c 2 -a 0 -i 12 -k RTR
+ -t 3.191853991 -s 2 -d 0 -p ack -e 40 -c 2 -a 0 -i 12 -k RTR 
- -t 3.191853991 -s 2 -d 0 -p ack -e 40 -c 2 -a 0 -i 12 -k RTR
h -t 3.191853991 -s 2 -d 0 -p ack -e 40 -c 2 -a 0 -i 12 -k RTR
r -t 3.205980418 -s 4 -d 4 -p tcp -e 1540 -c 2 -a 0 -i 9 -k AGT
+ -t 3.205980418 -s 4 -d -1 -p ack -e 40 -c 2 -a 0 -i 13 -k AGT 
- -t 3.205980418 -s 4 -d -1 -p ack -e 40 -c 2 -a 0 -i 13 -k AGT
h -t 3.205980418 -s 4 -d -1 -p ack -e 40 -c 2 -a 0 -i 13 -k AGT
+ -t 3.205980418 -s 4 -d 2 -p ack -e 40 -c 2 -a 0 -i 13 -k RTR 
- -t 3.205980418 -s 4 -d 2 -p ack -e 40 -c 2 -a 0 -i 13 -k RTR
h -t 3.205980418 -s 4 -d 2 -p ack -e 40 -c 2 -a 0 -i 13 -k RTR
+ -t 3.207826845 -s 2 -d 0 -p ack -e 40 -c 2 -a 0 -i 13 -k RTR 
- -t 3.207826845 -s 2 -d 0 -p ack -e 40 -c 2 -a 0 -i 13 -k RTR
h -t 3.207826845 -s 2 -d 0 -p ack -e 40 -c 2 -a 0 -i 13 -k RTR
r -t 3.210132398 -s 0 -d 0 -p ack -e 40 -c 2 -a 0 -i 10 -k AGT
+ -t 3.210132398 -s 0 -d -1 -p tcp -e 1540 -c 2 -a 0 -i 14 -k AGT 
- -t 3.210132398 -s 0 -d -1 -p tcp -e 1540 -c 2 -a 0 -i 14 -k AGT
h -t 3.210132398 -s 0 -d -1 -p tcp -e 1540 -c 2 -a 0 -i 14 -k AGT
+ -t 3.210132398 -s 0 -d -1 -p tcp -e 1540 -c 2 -a 0 -i 15 -k AGT 
- -t 3.210132398 -s 0 -d -1 -p tcp -e 1540 -c 2 -a 0 -i 15 -k AGT
h -t 3.210132398 -s 0 -d -1 -p tcp -e 1540 -c 2 -a 0 -i 15 -k AGT
+ -t 3.210132398 -s 0 -d 2 -p tcp -e 1540 -c 2 -a 0 -i 14 -k RTR 
- -t 3.210132398 -s 0 -d 2 -p tcp -e 1540 -c 2 -a 0 -i 14 -k RTR
h -t 3.210132398 -s 0 -d 2 -p tcp -e 1540 -c 2 -a 0 -i 14 -k RTR
+ -t 3.210132398 -s 0 -d 2 -p tcp -e 1540 -c 2 -a 0 -i 15 -k RTR 
- -t 3.210132398 -s 0 -d 2 -p tcp -e 1540 -c 2 -a 0 -i 15 -k RTR
h -t 3.210132398 -s 0 -d 2 -p tcp -e 1540 -c 2 -a 0 -i 15 -k RTR
+ -t 3.224077951 -s 2 -d 4 -p tcp -e 1540 -c 2 -a 0 -i 14 -k RTR 
- -t 3.224077951 -s 2 -d 4 -p tcp -e 1540 -c 2 -a 0 -i 14 -k RTR
h -t 3.224077951 -s 2 -d 4 -p tcp -e 1540 -c 2 -a 0 -i 14 -k RTR
+ -t 3.237944022 -s 2 -d 4 -p tcp -e 1540 -c 2 -a 0 -i 15 -k RTR 
- -t 3.237944022 -s 2 -d 4 -p tcp -e 1540 -c 2 -a 0 -i 15 -k RTR
h -t 3.237944022 -s 2 -d 4 -p tcp -e 1540 -c 2 -a 0 -i 15 -k RTR
r -t 3.239909576 -s 0 -d 0 -p ack -e 40 -c 2 -a 0 -i 11 -k AGT
+ -t 3.239909576 -s 0 -d -1 -p tcp -e 1540 -c 2 -a 0 -i 16 -k AGT 
- -t 3.239909576 -s 0 -d -1 -p tcp -e 1540 -c 2 -a 0 -i 16 -k AGT
h -t 3.239909576 -s 0 -d -1 -p tcp -e 1540 -c 2 -a 0 -i 16 -k AGT
+ -t 3.239909576 -s 0 -d -1 -p tcp -e 1540 -c 2 -a 0 -i 17 -k AGT 
- -t 3.239909576 -s 0 -d -1 -p tcp -e 1540 -c 2 -a 0 -i 17 -k AGT
h -t 3.239909576 -s 0 -d -1 -p tcp -e 1540 -c 2 -a 0 -i 17 -k AGT
+ -t 3.239909576 -s 0 -d 2 -p tcp -e 1540 -c 2 -a 0 -i 16 -k RTR 
- -t 3.239909576 -s 0 -d 2 -p tcp -e 1540 -c 2 -a 0 -i 16 -k RTR
h -t 3.239909576 -s 0 -d 2 -p tcp -e 1540 -c 2 -a 0 -i 16 -k RTR
+ -t 3.239909576 -s 0 -d 2 -p tcp -e 1540 -c 2 -a 0 -i 17 -k RTR 
- -t 3.239909576 -s 0 -d 2 -p tcp -e 1540 -c 2 -a 0 -i 17 -k RTR
h -t 3.239909576 -s 0 -d 2 -p tcp -e 1540 -c 2 -a 0 -i 17 -k RTR
r -t 3.241855648 -s 0 -d 0 -p ack -e 40 -c 2 -a 0 -i 12 -k AGT
+ -t 3.241855648 -s 0 -d -1 -p tcp -e 1540 -c 2 -a 0 -i 18 -k AGT 
- -t 3.241855648 -s 0 -d -1 -p tcp -e 1540 -c 2 -a 0 -i 18 -k AGT
h -t 3.241855648 -s 0 -d -1 -p tcp -e 1540 -c 2 -a 0 -i 18 -k AGT
+ -t 3.241855648 -s 0 -d -1 -p tcp -e 1540 -c 2 -a 0 -i 19 -k AGT 
- -t 3.241855648 -s 0 -d -1 -p tcp -e 1540 -c 2 -a 0 -i 19 -k AGT
h -t 3.241855648 -s 0 -d -1 -p tcp -e 1540 -c 2 -a 0 -i 19 -k AGT
+ -t 3.241855648 -s 0 -d 2 -p tcp -e 1540 -c 2 -a 0 -i 18 -k RTR 
- -t 3.241855648 -s 0 -d 2 -p tcp -e 1540 -c 2 -a 0 -i 18 -k RTR
h -t 3.241855648 -s 0 -d 2 -p tcp -e 1540 -c 2 -a 0 -i 18 -k RTR
+ -t 3.241855648 -s 0 -d 2 -p tcp -e 1540 -c 2 -a 0 -i 19 -k RTR 
- -t 3.241855648 -s 0 -d 2 -p tcp -e 1540 -c 2 -a 0 -i 19 -k RTR
h -t 3.241855648 -s 0 -d 2 -p tcp -e 1540 -c 2 -a 0 -i 19 -k RTR
+ -t 3.256768238 -s 2 -d 4 -p tcp -e 1540 -c 2 -a 0 -i 16 -k RTR 
- -t 3.256768238 -s 2 -d 4 -p tcp -e 1540 -c 2 -a 0 -i 16 -k RTR
h -t 3.256768238 -s 2 -d 4 -p tcp -e 1540 -c 2 -a 0 -i 16 -k RTR
+ -t 3.270854311 -s 2 -d 4 -p tcp -e 1540 -c 2 -a 0 -i 17 -k RTR 
- -t 3.270854311 -s 2 -d 4 -p tcp -e 1540 -c 2 -a 0 -i 17 -k RTR
h -t 3.270854311 -s 2 -d 4 -p tcp -e 1540 -c 2 -a 0 -i 17 -k RTR
+ -t 3.284880384 -s 2 -d 4 -p tcp -e 1540 -c 2 -a 0 -i 18 -k RTR 
- -t 3.284880384 -s 2 -d 4 -p tcp -e 1540 -c 2 -a 0 -i 18 -k RTR
h -t 3.284880384 -s 2 -d 4 -p tcp -e 1540 -c 2 -a 0 -i 18 -k RTR
+ -t 3.298766458 -s 2 -d 4 -p tcp -e 1540 -c 2 -a 0 -i 19 -k RTR 
- -t 3.298766458 -s 2 -d 4 -p tcp -e 1540 -c 2 -a 0 -i 19 -k RTR
h -t 3.298766458 -s 2 -d 4 -p tcp -e 1540 -c 2 -a 0 -i 19 -k RTR
r -t 3.300672014 -s 0 -d 0 -p ack -e 40 -c 2 -a 0 -i 13 -k AGT
+ -t 3.300672014 -s 0 -d -1 -p tcp -e 1540 -c 2 -a 0 -i 20 -k AGT 
- -t 3.300672014 -s 0 -d -1 -p tcp -e 1540 -c 2 -a 0 -i 20 -k AGT
h -t 3.300672014 -s 0 -d -1 -p tcp -e 1540 -c 2 -a 0 -i 20 -k AGT
+ -t 3.300672014 -s 0 -d -1 -p tcp -e 1540 -c 2 -a 0 -i 21 -k AGT 
- -t 3.300672014 -s 0 -d -1 -p tcp -e 1540 -c 2 -a 0 -i 21 -k AGT
h -t 3.300672014 -s 0 -d -1 -p tcp -e 1540 -c 2 -a 0 -i 21 -k AGT
+ -t 3.300672014 -s 0 -d 2 -p tcp -e 1540 -c 2 -a 0 -i 20 -k RTR 
- -t 3.300672014 -s 0 -d 2 -p tcp -e 1540 -c 2 -a 0 -i 20 -k RTR
h -t 3.300672014 -s 0 -d 2 -p tcp -e 1540 -c 2 -a 0 -i 20 -k RTR
+ -t 3.300672014 -s 0 -d 2 -p tcp -e 1540 -c 2 -a 0 -i 21 -k RTR 
- -t 3.300672014 -s 0 -d 2 -p tcp -e 1540 -c 2 -a 0 -i 21 -k RTR
h -t 3.300672014 -s 0 -d 2 -p tcp -e 1540 -c 2 -a 0 -i 21 -k RTR
+ -t 3.314757570 -s 2 -d 4 -p tcp -e 1540 -c 2 -a 0 -i 20 -k RTR 
- -t 3.314757570 -s 2 -d 4 -p tcp -e 1540 -c 2 -a 0 -i 20 -k RTR
h -t 3.314757570 -s 2 -d 4 -p tcp -e 1540 -c 2 -a 0 -i 20 -k RTR
+ -t 3.328703645 -s 2 -d 4 -p tcp -e 1540 -c 2 -a 0 -i 21 -k RTR 
- -t 3.328703645 -s 2 -d 4 -p tcp -e 1540 -c 2 -a 0 -i 21 -k RTR
h -t 3.328703645 -s 2 -d 4 -p tcp -e 1540 -c 2 -a 0 -i 21 -k RTR
r -t 3.342750066 -s 4 -d 4 -p tcp -e 1540 -c 2 -a 0 -i 14 -k AGT
+ -t 3.342750066 -s 4 -d -1 -p ack -e 40 -c 2 -a 0 -i 22 -k AGT 
- -t 3.342750066 -s 4 -d -1 -p ack -e 40 -c 2 -a 0 -i 22 -k AGT
h -t 3.342750066 -s 4 -d -1 -p ack -e 40 -c 2 -a 0 -i 22 -k AGT
+ -t 3.342750066 -s 4 -d 2 -p ack -e 40 -c 2 -a 0 -i 22 -k RTR 
- -t 3.342750066 -s 4 -d 2 -p ack -e 40 -c 2 -a 0 -i 22 -k RTR
h -t 3.342750066 -s 4 -d 2 -p ack -e 40 -c 2 -a 0 -i 22 -k RTR
r -t 3.356697292 -s 4 -d 4 -p tcp -e 1540 -c 2 -a 0 -i 15 -k AGT
+ -t 3.356697292 -s 4 -d -1 -p ack -e 40 -c 2 -a 0 -i 23 -k AGT 
- -t 3.356697292 -s 4 -d -1 -p ack -e 40 -c 2 -a 0 -i 23 -k AGT
h -t 3.356697292 -s 4 -d -1 -p ack -e 40 -c 2 -a 0 -i 23 -k AGT
+ -t 3.356697292 -s 4 -d 2 -p ack -e 40 -c 2 -a 0 -i 23 -k RTR 
- -t 3.356697292 -s 4 -d 2 -p ack -e 40 -c 2 -a 0 -i 23 -k RTR
h -t 3.356697292 -s 4 -d 2 -p ack -e 40 -c 2 -a 0 -i 23 -k RTR
+ -t 3.358983712 -s 2 -d 0 -p ack -e 40 -c 2 -a 0 -i 22 -k RTR 
- -t 3.358983712 -s 2 -d 0 -p ack -e 40 -c 2 -a 0 -i 22 -k RTR
h -t 3.358983712 -s 2 -d 0 -p ack -e 40 -c 2 -a 0 -i 22 -k RTR
r -t 3.372970131 -s 4 -d 4 -p tcp -e 1540 -c 2 -a 0 -i 16 -k AGT
+ -t 3.372970131 -s 4 -d -1 -p ack -e 40 -c 2 -a 0 -i 24 -k AGT 
- -t 3.372970131 -s 4 -d -1 -p ack -e 40 -c 2 -a 0 -i 24 -k AGT
h -t 3.372970131 -s 4 -d -1 -p ack -e 40 -c 2 -a 0 -i 24 -k AGT
+ -t 3.372970131 -s 4 -d 2 -p ack -e 40 -c 2 -a 0 -i 24 -k RTR 
- -t 3.372970131 -s 4 -d 2 -p ack -e 40 -c 2 -a 0 -i 24 -k RTR
h -t 3.372970131 -s 4 -d 2 -p ack -e 40 -c 2 -a 0 -i 24 -k RTR
+ -t 3.375096550 -s 2 -d 0 -p ack -e 40 -c 2 -a 0 -i 23 -k RTR 
- -t 3.375096550 -s 2 -d 0 -p ack -e 40 -c 2 -a 0 -i 23 -k RTR
h -t 3.375096550 -s 2 -d 0 -p ack -e 40 -c 2 -a 0 -i 23 -k RTR
r -t 3.389182969 -s 4 -d 4 -p tcp -e 1540 -c 2 -a 0 -i 17 -k AGT
+ -t 3.389182969 -s 4 -d -1 -p ack -e 40 -c 2 -a 0 -i 25 -k AGT 
- -t 3.389182969 -s 4 -d -1 -p ack -e 40 -c 2 -a 0 -i 25 -k AGT
h -t 3.389182969 -s 4 -d -1 -p ack -e 40 -c 2 -a 0 -i 25 -k AGT
+ -t 3.389182969 -s 4 -d 2 -p ack -e 40 -c 2 -a 0 -i 25 -k RTR 
- -t 3.389182969 -s 4 -d 2 -p ack -e 40 -c 2 -a 0 -i 25 -k RTR
h -t 3.389182969 -s 4 -d 2 -p ack -e 40 -c 2 -a 0 -i 25 -k RTR
+ -t 3.391069386 -s 2 -d 0 -p ack -e 40 -c 2 -a 0 -i 24 -k RTR 
- -t 3.391069386 -s 2 -d 0 -p ack -e 40 -c 2 -a 0 -i 24 -k RTR
h -t 3.391069386 -s 2 -d 0 -p ack -e 40 -c 2 -a 0 -i 24 -k RTR
r -t 3.405155804 -s 4 -d 4 -p tcp -e 1540 -c 2 -a 0 -i 18 -k AGT
+ -t 3.405155804 -s 4 -d -1 -p ack -e 40 -c 2 -a 0 -i 26 -k AGT 
- -t 3.405155804 -s 4 -d -1 -p ack -e 40 -c 2 -a 0 -i 26 -k AGT
h -t 3.405155804 -s 4 -d -1 -p ack -e 40 -c 2 -a 0 -i 26 -k AGT
+ -t 3.405155804 -s 4 -d 2 -p ack -e 40 -c 2 -a 0 -i 26 -k RTR 
- -t 3.405155804 -s 4 -d 2 -p ack -e 40 -c 2 -a 0 -i 26 -k RTR
h -t 3.405155804 -s 4 -d 2 -p ack -e 40 -c 2 -a 0 -i 26 -k RTR
+ -t 3.407042221 -s 2 -d 0 -p ack -e 40 -c 2 -a 0 -i 25 -k RTR 
- -t 3.407042221 -s 2 -d 0 -p ack -e 40 -c 2 -a 0 -i 25 -k RTR
h -t 3.407042221 -s 2 -d 0 -p ack -e 40 -c 2 -a 0 -i 25 -k RTR
+ -t 3.408909444 -s 2 -d 0 -p ack -e 40 -c 2 -a 0 -i 26 -k RTR 
- -t 3.408909444 -s 2 -d 0 -p ack -e 40 -c 2 -a 0 -i 26 -k RTR
h -t 3.408909444 -s 2 -d 0 -p ack -e 40 -c 2 -a 0 -i 26 -k RTR
r -t 3.422995861 -s 4 -d 4 -p tcp -e 1540 -c 2 -a 0 -i 19 -k AGT
+ -t 3.422995861 -s 4 -d -1 -p ack -e 40 -c 2 -a 0 -i 27 -k AGT 
- -t 3.422995861 -s 4 -d -1 -p ack -e 40 -c 2 -a 0 -i 27 -k AGT
h -t 3.422995861 -s 4 -d -1 -p ack -e 40 -c 2 -a 0 -i 27 -k AGT
+ -t 3.422995861 -s 4 -d 2 -p ack -e 40 -c 2 -a 0 -i 27 -k RTR 
- -t 3.422995861 -s 4 -d 2 -p ack -e 40 -c 2 -a 0 -i 27 -k RTR
h -t 3.422995861 -s 4 -d 2 -p ack -e 40 -c 2 -a 0 -i 27 -k RTR
r -t 3.437043082 -s 4 -d 4 -p tcp -e 1540 -c 2 -a 0 -i 20 -k AGT
+ -t 3.437043082 -s 4 -d -1 -p ack -e 40 -c 2 -a 0 -i 28 -k AGT 
- -t 3.437043082 -s 4 -d -1 -p ack -e 40 -c 2 -a 0 -i 28 -k AGT
h -t 3.437043082 -s 4 -d -1 -p ack -e 40 -c 2 -a 0 -i 28 -k AGT
+ -t 3.437043082 -s 4 -d 2 -p ack -e 40 -c 2 -a 0 -i 28 -k RTR 
- -t 3.437043082 -s 4 -d 2 -p ack -e 40 -c 2 -a 0 -i 28 -k RTR
h -t 3.437043082 -s 4 -d 2 -p ack -e 40 -c 2 -a 0 -i 28 -k RTR
+ -t 3.438989498 -s 2 -d 0 -p ack -e 40 -c 2 -a 0 -i 27 -k RTR 
- -t 3.438989498 -s 2 -d 0 -p ack -e 40 -c 2 -a 0 -i 27 -k RTR
h -t 3.438989498 -s 2 -d 0 -p ack -e 40 -c 2 -a 0 -i 27 -k RTR
r -t 3.452895913 -s 4 -d 4 -p tcp -e 1540 -c 2 -a 0 -i 21 -k AGT
+ -t 3.452895913 -s 4 -d -1 -p ack -e 40 -c 2 -a 0 -i 29 -k AGT 
- -t 3.452895913 -s 4 -d -1 -p ack -e 40 -c 2 -a 0 -i 29 -k AGT
h -t 3.452895913 -s 4 -d -1 -p ack -e 40 -c 2 -a 0 -i 29 -k AGT
+ -t 3.452895913 -s 4 -d 2 -p ack -e 40 -c 2 -a 0 -i 29 -k RTR 
- -t 3.452895913 -s 4 -d 2 -p ack -e 40 -c 2 -a 0 -i 29 -k RTR
h -t 3.452895913 -s 4 -d 2 -p ack -e 40 -c 2 -a 0 -i 29 -k RTR
+ -t 3.454822328 -s 2 -d 0 -p ack -e 40 -c 2 -a 0 -i 28 -k RTR 
- -t 3.454822328 -s 2 -d 0 -p ack -e 40 -c 2 -a 0 -i 28 -k RTR
h -t 3.454822328 -s 2 -d 0 -p ack -e 40 -c 2 -a 0 -i 28 -k RTR
r -t 3.457007889 -s 0 -d 0 -p ack -e 40 -c 2 -a 0 -i 22 -k AGT
+ -t 3.457007889 -s 0 -d -1 -p tcp -e 1540 -c 2 -a 0 -i 30 -k AGT 
- -t 3.457007889 -s 0 -d -1 -p tcp -e 1540 -c 2 -a 0 -i 30 -k AGT
h -t 3.457007889 -s 0 -d -1 -p tcp -e 1540 -c 2 -a 0 -i 30 -k AGT
+ -t 3.457007889 -s 0 -d -1 -p tcp -e 1540 -c 2 -a 0 -i 31 -k AGT 
- -t 3.457007889 -s 0 -d -1 -p tcp -e 1540 -c 2 -a 0 -i 31 -k AGT
h -t 3.457007889 -s 0 -d -1 -p tcp -e 1540 -c 2 -a 0 -i 31 -k AGT
+ -t 3.457007889 -s 0 -d 2 -p tcp -e 1540 -c 2 -a 0 -i 30 -k RTR 
- -t 3.457007889 -s 0 -d 2 -p tcp -e 1540 -c 2 -a 0 -i 30 -k RTR
h -t 3.457007889 -s 0 -d 2 -p tcp -e 1540 -c 2 -a 0 -i 30 -k RTR
+ -t 3.457007889 -s 0 -d 2 -p tcp -e 1540 -c 2 -a 0 -i 31 -k RTR 
- -t 3.457007889 -s 0 -d 2 -p tcp -e 1540 -c 2 -a 0 -i 31 -k RTR
h -t 3.457007889 -s 0 -d 2 -p tcp -e 1540 -c 2 -a 0 -i 31 -k RTR
+ -t 3.470953449 -s 2 -d 4 -p tcp -e 1540 -c 2 -a 0 -i 30 -k RTR 
- -t 3.470953449 -s 2 -d 4 -p tcp -e 1540 -c 2 -a 0 -i 30 -k RTR
h -t 3.470953449 -s 2 -d 4 -p tcp -e 1540 -c 2 -a 0 -i 30 -k RTR
r -t 3.472819011 -s 0 -d 0 -p ack -e 40 -c 2 -a 0 -i 23 -k AGT
+ -t 3.472819011 -s 0 -d -1 -p tcp -e 1540 -c 2 -a 0 -i 32 -k AGT 
- -t 3.472819011 -s 0 -d -1 -p tcp -e 1540 -c 2 -a 0 -i 32 -k AGT
h -t 3.472819011 -s 0 -d -1 -p tcp -e 1540 -c 2 -a 0 -i 32 -k AGT
+ -t 3.472819011 -s 0 -d -1 -p tcp -e 1540 -c 2 -a 0 -i 33 -k AGT 
- -t 3.472819011 -s 0 -d -1 -p tcp -e 1540 -c 2 -a 0 -i 33 -k AGT
h -t 3.472819011 -s 0 -d -1 -p tcp -e 1540 -c 2 -a 0 -i 33 -k AGT
+ -t 3.472819011 -s 0 -d 2 -p tcp -e 1540 -c 2 -a 0 -i 32 -k RTR 
- -t 3.472819011 -s 0 -d 2 -p tcp -e 1540 -c 2 -a 0 -i 32 -k RTR
h -t 3.472819011 -s 0 -d 2 -p tcp -e 1540 -c 2 -a 0 -i 32 -k RTR
+ -t 3.472819011 -s 0 -d 2 -p tcp -e 1540 -c 2 -a 0 -i 33 -k RTR 
- -t 3.472819011 -s 0 -d 2 -p tcp -e 1540 -c 2 -a 0 -i 33 -k RTR
h -t 3.472819011 -s 0 -d 2 -p tcp -e 1540 -c 2 -a 0 -i 33 -k RTR
r -t 3.474645093 -s 0 -d 0 -p ack -e 40 -c 2 -a 0 -i 24 -k AGT
+ -t 3.474645093 -s 0 -d -1 -p tcp -e 1540 -c 2 -a 0 -i 34 -k AGT 
- -t 3.474645093 -s 0 -d -1 -p tcp -e 1540 -c 2 -a 0 -i 34 -k AGT
h -t 3.474645093 -s 0 -d -1 -p tcp -e 1540 -c 2 -a 0 -i 34 -k AGT
+ -t 3.474645093 -s 0 -d -1 -p tcp -e 1540 -c 2 -a 0 -i 35 -k AGT 
- -t 3.474645093 -s 0 -d -1 -p tcp -e 1540 -c 2 -a 0 -i 35 -k AGT
h -t 3.474645093 -s 0 -d -1 -p tcp -e 1540 -c 2 -a 0 -i 35 -k AGT
+ -t 3.474645093 -s 0 -d 2 -p tcp -e 1540 -c 2 -a 0 -i 34 -k RTR 
- -t 3.474645093 -s 0 -d 2 -p tcp -e 1540 -c 2 -a 0 -i 34 -k RTR
h -t 3.474645093 -s 0 -d 2 -p tcp -e 1540 -c 2 -a 0 -i 34 -k RTR
+ -t 3.474645093 -s 0 -d 2 -p tcp -e 1540 -c 2 -a 0 -i 35 -k RTR 
- -t 3.474645093 -s 0 -d 2 -p tcp -e 1540 -c 2 -a 0 -i 35 -k RTR
h -t 3.474645093 -s 0 -d 2 -p tcp -e 1540 -c 2 -a 0 -i 35 -k RTR
r -t 3.476611175 -s 0 -d 0 -p ack -e 40 -c 2 -a 0 -i 25 -k AGT
+ -t 3.476611175 -s 0 -d -1 -p tcp -e 1540 -c 2 -a 0 -i 36 -k AGT 
- -t 3.476611175 -s 0 -d -1 -p tcp -e 1540 -c 2 -a 0 -i 36 -k AGT
h -t 3.476611175 -s 0 -d -1 -p tcp -e 1540 -c 2 -a 0 -i 36 -k AGT
+ -t 3.476611175 -s 0 -d -1 -p tcp -e 1540 -c 2 -a 0 -i 37 -k AGT 
- -t 3.476611175 -s 0 -d -1 -p tcp -e 1540 -c 2 -a 0 -i 37 -k AGT
h -t 3.476611175 -s 0 -d -1 -p tcp -e 1540 -c 2 -a 0 -i 37 -k AGT
+ -t 3.476611175 -s 0 -d 2 -p tcp -e 1540 -c 2 -a 0 -i 36 -k RTR 
- -t 3.476611175 -s 0 -d 2 -p tcp -e 1540 -c 2 -a 0 -i 36 -k RTR
h -t 3.476611175 -s 0 -d 2 -p tcp -e 1540 -c 2 -a 0 -i 36 -k RTR
+ -t 3.476611175 -s 0 -d 2 -p tcp -e 1540 -c 2 -a 0 -i 37 -k RTR 
- -t 3.476611175 -s 0 -d 2 -p tcp -e 1540 -c 2 -a 0 -i 37 -k RTR
h -t 3.476611175 -s 0 -d 2 -p tcp -e 1540 -c 2 -a 0 -i 37 -k RTR
+ -t 3.490476736 -s 2 -d 4 -p tcp -e 1540 -c 2 -a 0 -i 31 -k RTR 
- -t 3.490476736 -s 2 -d 4 -p tcp -e 1540 -c 2 -a 0 -i 31 -k RTR
h -t 3.490476736 -s 2 -d 4 -p tcp -e 1540 -c 2 -a 0 -i 31 -k RTR
+ -t 3.492413643 -s 2 -d 0 -p ack -e 40 -c 2 -a 0 -i 29 -k RTR 
- -t 3.492413643 -s 2 -d 0 -p ack -e 40 -c 2 -a 0 -i 29 -k RTR
h -t 3.492413643 -s 2 -d 0 -p ack -e 40 -c 2 -a 0 -i 29 -k RTR
r -t 3.494459205 -s 0 -d 0 -p ack -e 40 -c 2 -a 0 -i 26 -k AGT
+ -t 3.494459205 -s 0 -d -1 -p tcp -e 1540 -c 2 -a 0 -i 38 -k AGT 
- -t 3.494459205 -s 0 -d -1 -p tcp -e 1540 -c 2 -a 0 -i 38 -k AGT
h -t 3.494459205 -s 0 -d -1 -p tcp -e 1540 -c 2 -a 0 -i 38 -k AGT
+ -t 3.494459205 -s 0 -d -1 -p tcp -e 1540 -c 2 -a 0 -i 39 -k AGT 
- -t 3.494459205 -s 0 -d -1 -p tcp -e 1540 -c 2 -a 0 -i 39 -k AGT
h -t 3.494459205 -s 0 -d -1 -p tcp -e 1540 -c 2 -a 0 -i 39 -k AGT
+ -t 3.494459205 -s 0 -d 2 -p tcp -e 1540 -c 2 -a 0 -i 38 -k RTR 
- -t 3.494459205 -s 0 -d 2 -p tcp -e 1540 -c 2 -a 0 -i 38 -k RTR
h -t 3.494459205 -s 0 -d 2 -p tcp -e 1540 -c 2 -a 0 -i 38 -k RTR
+ -t 3.494459205 -s 0 -d 2 -p tcp -e 1540 -c 2 -a 0 -i 39 -k RTR 
- -t 3.494459205 -s 0 -d 2 -p tcp -e 1540 -c 2 -a 0 -i 39 -k RTR
h -t 3.494459205 -s 0 -d 2 -p tcp -e 1540 -c 2 -a 0 -i 39 -k RTR
+ -t 3.508344767 -s 2 -d 4 -p tcp -e 1540 -c 2 -a 0 -i 32 -k RTR 
- -t 3.508344767 -s 2 -d 4 -p tcp -e 1540 -c 2 -a 0 -i 32 -k RTR
h -t 3.508344767 -s 2 -d 4 -p tcp -e 1540 -c 2 -a 0 -i 32 -k RTR
+ -t 3.522490851 -s 2 -d 4 -p tcp -e 1540 -c 2 -a 0 -i 33 -k RTR 
- -t 3.522490851 -s 2 -d 4 -p tcp -e 1540 -c 2 -a 0 -i 33 -k RTR
h -t 3.522490851 -s 2 -d 4 -p tcp -e 1540 -c 2 -a 0 -i 33 -k RTR
r -t 3.524436414 -s 0 -d 0 -p ack -e 40 -c 2 -a 0 -i 27 -k AGT
+ -t 3.524436414 -s 0 -d -1 -p tcp -e 1540 -c 2 -a 0 -i 40 -k AGT 
- -t 3.524436414 -s 0 -d -1 -p tcp -e 1540 -c 2 -a 0 -i 40 -k AGT
h -t 3.524436414 -s 0 -d -1 -p tcp -e 1540 -c 2 -a 0 -i 40 -k AGT
+ -t 3.524436414 -s 0 -d -1 -p tcp -e 1540 -c 2 -a 0 -i 41 -k AGT 
- -t 3.524436414 -s 0 -d -1 -p tcp -e 1540 -c 2 -a 0 -i 41 -k AGT
h -t 3.524436414 -s 0 -d -1 -p tcp -e 1540 -c 2 -a 0 -i 41 -k AGT
+ -t 3.524436414 -s 0 -d 2 -p tcp -e 1540 -c 2 -a 0 -i 40 -k RTR 
- -t 3.524436414 -s 0 -d 2 -p tcp -e 1540 -c 2 -a 0 -i 40 -k RTR
h -t 3.524436414 -s 0 -d 2 -p tcp -e 1540 -c 2 -a 0 -i 40 -k RTR
+ -t 3.524436414 -s 0 -d 2 -p tcp -e 1540 -c 2 -a 0 -i 41 -k RTR 
- -t 3.524436414 -s 0 -d 2 -p tcp -e 1540 -c 2 -a 0 -i 41 -k RTR
h -t 3.524436414 -s 0 -d 2 -p tcp -e 1540 -c 2 -a 0 -i 41 -k RTR
r -t 3.526282498 -s 0 -d 0 -p ack -e 40 -c 2 -a 0 -i 28 -k AGT
+ -t 3.526282498 -s 0 -d -1 -p tcp -e 1540 -c 2 -a 0 -i 42 -k AGT 
- -t 3.526282498 -s 0 -d -1 -p tcp -e 1540 -c 2 -a 0 -i 42 -k AGT
h -t 3.526282498 -s 0 -d -1 -p tcp -e 1540 -c 2 -a 0 -i 42 -k AGT
+ -t 3.526282498 -s 0 -d -1 -p tcp -e 1540 -c 2 -a 0 -i 43 -k AGT 
- -t 3.526282498 -s 0 -d -1 -p tcp -e 1540 -c 2 -a 0 -i 43 -k AGT
h -t 3.526282498 -s 0 -d -1 -p tcp -e 1540 -c 2 -a 0 -i 43 -k AGT
+ -t 3.526282498 -s 0 -d 2 -p tcp -e 1540 -c 2 -a 0 -i 42 -k RTR 
- -t 3.526282498 -s 0 -d 2 -p tcp -e 1540 -c 2 -a 0 -i 42 -k RTR
h -t 3.526282498 -s 0 -d 2 -p tcp -e 1540 -c 2 -a 0 -i 42 -k RTR
+ -t 3.526282498 -s 0 -d 2 -p tcp -e 1540 -c 2 -a 0 -i 43 -k RTR 
- -t 3.526282498 -s 0 -d 2 -p tcp -e 1540 -c 2 -a 0 -i 43 -k RTR