r 39.541505648 _5_ RTR  --- 718 tcp 1540 [13a 5 0 800] ------- [0:0 4:0 30 5] [322 0] 1 0
f 39.541505648 _5_ RTR  --- 718 tcp 1540 [13a 5 0 800] ------- [0:0 4:0 29 19] [322 0] 1 0
r 39.543482252 _5_ RTR  --- 706 ack 40 [13a 5 13 800] ------- [4:0 0:0 29 5] [323 0] 2 0
f 39.543482252 _5_ RTR  --- 706 ack 40 [13a 5 13 800] ------- [4:0 0:0 28 0] [323 0] 2 0
r 39.545368214 _0_ AGT  --- 705 ack 40 [13a 0 5 800] ------- [4:0 0:0 28 0] [322 0] 3 0
s 39.545368214 _0_ AGT  --- 719 tcp 1540 [0 0 0 0] ------- [0:0 4:0 32 0] [323 0] 0 0
r 39.545368214 _0_ RTR  --- 719 tcp 1540 [0 0 0 0] ------- [0:0 4:0 32 0] [323 0] 0 0
s 39.545368214 _0_ AGT  --- 720 tcp 1540 [0 0 0 0] ------- [0:0 4:0 32 0] [324 0] 0 0
r 39.545368214 _0_ RTR  --- 720 tcp 1540 [0 0 0 0] ------- [0:0 4:0 32 0] [324 0] 0 0
s 39.545368214 _0_ RTR  --- 719 tcp 1540 [0 0 0 0] ------- [0:0 4:0 30 5] [323 0] 0 0
s 39.545368214 _0_ RTR  --- 720 tcp 1540 [0 0 0 0] ------- [0:0 4:0 30 5] [324 0] 0 0
r 39.559454176 _5_ RTR  --- 719 tcp 1540 [13a 5 0 800] ------- [0:0 4:0 30 5] [323 0] 1 0
f 39.559454176 _5_ RTR  --- 719 tcp 1540 [13a 5 0 800] ------- [0:0 4:0 29 19] [323 0] 1 0
r 39.573320790 _5_ RTR  --- 720 tcp 1540 [13a 5 0 800] ------- [0:0 4:0 30 5] [324 0] 1 0
f 39.573320790 _5_ RTR  --- 720 tcp 1540 [13a 5 0 800] ------- [0:0 4:0 29 19] [324 0] 1 0
r 39.587227008 _19_ RTR  --- 718 tcp 1540 [13a 13 5 800] ------- [0:0 4:0 29 19] [322 0] 2 0
f 39.587227008 _19_ RTR  --- 718 tcp 1540 [13a 13 5 800] ------- [0:0 4:0 28 4] [322 0] 2 0
r 39.589473705 _0_ AGT  --- 706 ack 40 [13a 0 5 800] ------- [4:0 0:0 28 0] [323 0] 3 0
s 39.589473705 _0_ AGT  --- 721 tcp 1540 [0 0 0 0] ------- [0:0 4:0 32 0] [325 0] 0 0
r 39.589473705 _0_ RTR  --- 721 tcp 1540 [0 0 0 0] ------- [0:0 4:0 32 0] [325 0] 0 0
s 39.589473705 _0_ AGT  --- 722 tcp 1540 [0 0 0 0] ------- [0:0 4:0 32 0] [326 0] 0 0
r 39.589473705 _0_ RTR  --- 722 tcp 1540 [0 0 0 0] ------- [0:0 4:0 32 0] [326 0] 0 0
s 39.589473705 _0_ RTR  --- 721 tcp 1540 [0 0 0 0] ------- [0:0 4:0 30 5] [325 0] 0 0
s 39.589473705 _0_ RTR  --- 722 tcp 1540 [0 0 0 0] ------- [0:0 4:0 30 5] [326 0] 0 0
r 39.603360577 _19_ RTR  --- 719 tcp 1540 [13a 13 5 800] ------- [0:0 4:0 29 19] [323 0] 2 0
f 39.603360577 _19_ RTR  --- 719 tcp 1540 [13a 13 5 800] ------- [0:0 4:0 28 4] [323 0] 2 0
r 39.617207537 _19_ RTR  --- 720 tcp 1540 [13a 13 5 800] ------- [0:0 4:0 29 19] [324 0] 2 0
f 39.617207537 _19_ RTR  --- 720 tcp 1540 [13a 13 5 800] ------- [0:0 4:0 28 4] [324 0] 2 0
r 39.619073758 _5_ RTR  --- 707 ack 40 [13a 5 13 800] ------- [4:0 0:0 29 5] [323 0] 2 0
f 39.619073758 _5_ RTR  --- 707 ack 40 [13a 5 13 800] ------- [4:0 0:0 28 0] [323 0] 2 0
r 39.633110017 _5_ RTR  --- 721 tcp 1540 [13a 5 0 800] ------- [0:0 4:0 30 5] [325 0] 1 0
f 39.633110017 _5_ RTR  --- 721 tcp 1540 [13a 5 0 800] ------- [0:0 4:0 29 19] [325 0] 1 0
r 39.635015971 _0_ AGT  --- 707 ack 40 [13a 0 5 800] ------- [4:0 0:0 28 0] [323 0] 3 0
s 39.635015971 _0_ AGT  --- 723 tcp 1540 [0 0 0 0] ------- [0:0 4:0 32 0] [327 0] 0 0
r 39.635015971 _0_ RTR  --- 723 tcp 1540 [0 0 0 0] ------- [0:0 4:0 32 0] [327 0] 0 0
s 39.635015971 _0_ RTR  --- 723 tcp 1540 [0 0 0 0] ------- [0:0 4:0 30 5] [327 0] 0 0
r 39.649221924 _5_ RTR  --- 722 tcp 1540 [13a 5 0 800] ------- [0:0 4:0 30 5] [326 0] 1 0
f 39.649221924 _5_ RTR  --- 722 tcp 1540 [13a 5 0 800] ------- [0:0 4:0 29 19] [326 0] 1 0
r 39.663088527 _5_ RTR  --- 723 tcp 1540 [13a 5 0 800] ------- [0:0 4:0 30 5] [327 0] 1 0
f 39.663088527 _5_ RTR  --- 723 tcp 1540 [13a 5 0 800] ------- [0:0 4:0 29 19] [327 0] 1 0
r 39.677064844 _4_ AGT  --- 699 tcp 1540 [13a 4 13 800] ------- [0:0 4:0 28 4] [336 0] 3 0
s 39.677064844 _4_ AGT  --- 724 ack 40 [0 0 0 0] ------- [4:0 0:0 32 0] [336 0] 0 0
r 39.677064844 _4_ RTR  --- 724 ack 40 [0 0 0 0] ------- [4:0 0:0 32 0] [336 0] 0 0
s 39.677064844 _4_ RTR  --- 724 ack 40 [0 0 0 0] ------- [4:0 0:0 30 19] [336 0] 0 0
r 39.678970767 _19_ RTR  --- 724 ack 40 [13a 13 4 800] ------- [4:0 0:0 30 19] [336 0] 1 0
f 39.678970767 _19_ RTR  --- 724 ack 40 [13a 13 4 800] ------- [4:0 0:0 29 5] [336 0] 1 0
r 39.692907726 _19_ RTR  --- 721 tcp 1540 [13a 13 5 800] ------- [0:0 4:0 29 19] [325 0] 2 0
f 39.692907726 _19_ RTR  --- 721 tcp 1540 [13a 13 5 800] ------- [0:0 4:0 28 4] [325 0] 2 0
r 39.706794698 _19_ RTR  --- 722 tcp 1540 [13a 13 5 800] ------- [0:0 4:0 29 19] [326 0] 2 0
f 39.706794698 _19_ RTR  --- 722 tcp 1540 [13a 13 5 800] ------- [0:0 4:0 28 4] [326 0] 2 0
r 39.708820928 _5_ RTR  --- 711 ack 40 [13a 5 13 800] ------- [4:0 0:0 29 5] [324 0] 2 0
f 39.708820928 _5_ RTR  --- 711 ack 40 [13a 5 13 800] ------- [4:0 0:0 28 0] [324 0] 2 0
r 39.722847159 _19_ RTR  --- 723 tcp 1540 [13a 13 5 800] ------- [0:0 4:0 29 19] [327 0] 2 0
f 39.722847159 _19_ RTR  --- 723 tcp 1540 [13a 13 5 800] ------- [0:0 4:0 28 4] [327 0] 2 0
r 39.724873848 _0_ AGT  --- 711 ack 40 [13a 0 5 800] ------- [4:0 0:0 28 0] [324 0] 3 0
s 39.724873848 _0_ AGT  --- 725 tcp 1540 [0 0 0 0] ------- [0:0 4:0 32 0] [328 0] 0 0
r 39.724873848 _0_ RTR  --- 725 tcp 1540 [0 0 0 0] ------- [0:0 4:0 32 0] [328 0] 0 0
s 39.724873848 _0_ RTR  --- 725 tcp 1540 [0 0 0 0] ------- [0:0 4:0 30 5] [328 0] 0 0
r 39.739019792 _5_ RTR  --- 725 tcp 1540 [13a 5 0 800] ------- [0:0 4:0 30 5] [328 0] 1 0
f 39.739019792 _5_ RTR  --- 725 tcp 1540 [13a 5 0 800] ------- [0:0 4:0 29 19] [328 0] 1 0
r 39.741056422 _5_ RTR  --- 712 ack 40 [13a 5 13 800] ------- [4:0 0:0 29 5] [325 0] 2 0
f 39.741056422 _5_ RTR  --- 712 ack 40 [13a 5 13 800] ------- [4:0 0:0 28 0] [325 0] 2 0
r 39.755123086 _4_ AGT  --- 708 tcp 1540 [13a 4 13 800] ------- [0:0 4:0 28 4] [337 0] 3 0
s 39.755123086 _4_ AGT  --- 726 ack 40 [0 0 0 0] ------- [4:0 0:0 32 0] [337 0] 0 0
r 39.755123086 _4_ RTR  --- 726 ack 40 [0 0 0 0] ------- [4:0 0:0 32 0] [337 0] 0 0
s 39.755123086 _4_ RTR  --- 726 ack 40 [0 0 0 0] ------- [4:0 0:0 30 19] [337 0] 0 0
r 39.757369004 _19_ RTR  --- 726 ack 40 [13a 13 4 800] ------- [4:0 0:0 30 19] [337 0] 1 0
f 39.757369004 _19_ RTR  --- 726 ack 40 [13a 13 4 800] ------- [4:0 0:0 29 5] [337 0] 1 0
r 39.759235239 _5_ RTR  --- 713 ack 40 [13a 5 13 800] ------- [4:0 0:0 29 5] [326 0] 2 0
f 39.759235239 _5_ RTR  --- 713 ack 40 [13a 5 13 800] ------- [4:0 0:0 28 0] [326 0] 2 0
r 39.773101475 _19_ RTR  --- 725 tcp 1540 [13a 13 5 800] ------- [0:0 4:0 29 19] [328 0] 2 0
f 39.773101475 _19_ RTR  --- 725 tcp 1540 [13a 13 5 800] ------- [0:0 4:0 28 4] [328 0] 2 0
r 39.775068161 _0_ AGT  --- 712 ack 40 [13a 0 5 800] ------- [4:0 0:0 28 0] [325 0] 3 0
s 39.775068161 _0_ AGT  --- 727 tcp 1540 [0 0 0 0] ------- [0:0 4:0 32 0] [329 0] 0 0
r 39.775068161 _0_ RTR  --- 727 tcp 1540 [0 0 0 0] ------- [0:0 4:0 32 0] [329 0] 0 0
s 39.775068161 _0_ AGT  --- 728 tcp 1540 [0 0 0 0] ------- [0:0 4:0 32 0] [330 0] 0 0
r 39.775068161 _0_ RTR  --- 728 tcp 1540 [0 0 0 0] ------- [0:0 4:0 32 0] [330 0] 0 0
s 39.775068161 _0_ RTR  --- 727 tcp 1540 [0 0 0 0] ------- [0:0 4:0 30 5] [329 0] 0 0
s 39.775068161 _0_ RTR  --- 728 tcp 1540 [0 0 0 0] ------- [0:0 4:0 30 5] [330 0] 0 0
r 39.789274101 _5_ RTR  --- 727 tcp 1540 [13a 5 0 800] ------- [0:0 4:0 30 5] [329 0] 1 0
f 39.789274101 _5_ RTR  --- 727 tcp 1540 [13a 5 0 800] ------- [0:0 4:0 29 19] [329 0] 1 0
r 39.791180039 _0_ AGT  --- 713 ack 40 [13a 0 5 800] ------- [4:0 0:0 28 0] [326 0] 3 0
s 39.791180039 _0_ AGT  --- 729 tcp 1540 [0 0 0 0] ------- [0:0 4:0 32 0] [331 0] 0 0
r 39.791180039 _0_ RTR  --- 729 tcp 1540 [0 0 0 0] ------- [0:0 4:0 32 0] [331 0] 0 0
s 39.791180039 _0_ AGT  --- 730 tcp 1540 [0 0 0 0] ------- [0:0 4:0 32 0] [332 0] 0 0
r 39.791180039 _0_ RTR  --- 730 tcp 1540 [0 0 0 0] ------- [0:0 4:0 32 0] [332 0] 0 0
s 39.791180039 _0_ RTR  --- 729 tcp 1540 [0 0 0 0] ------- [0:0 4:0 30 5] [331 0] 0 0
s 39.791180039 _0_ RTR  --- 730 tcp 1540 [0 0 0 0] ------- [0:0 4:0 30 5] [332 0] 0 0
r 39.805065978 _5_ RTR  --- 728 tcp 1540 [13a 5 0 800] ------- [0:0 4:0 30 5] [330 0] 1 0
f 39.805065978 _5_ RTR  --- 728 tcp 1540 [13a 5 0 800] ------- [0:0 4:0 29 19] [330 0] 1 0
r 39.819092218 _19_ RTR  --- 727 tcp 1540 [13a 13 5 800] ------- [0:0 4:0 29 19] [329 0] 2 0
f 39.819092218 _19_ RTR  --- 727 tcp 1540 [13a 13 5 800] ------- [0:0 4:0 28 4] [329 0] 2 0
r 39.834045206 _19_ RTR  --- 728 tcp 1540 [13a 13 5 800] ------- [0:0 4:0 29 19] [330 0] 2 0
f 39.834045206 _19_ RTR  --- 728 tcp 1540 [13a 13 5 800] ------- [0:0 4:0 28 4] [330 0] 2 0
r 39.835891449 _5_ RTR  --- 714 ack 40 [13a 5 13 800] ------- [4:0 0:0 29 5] [334 0] 2 0
f 39.835891449 _5_ RTR  --- 714 ack 40 [13a 5 13 800] ------- [4:0 0:0 28 0] [334 0] 2 0
r 39.849878110 _4_ AGT  --- 709 tcp 1540 [13a 4 13 800] ------- [0:0 4:0 28 4] [338 0] 3 0
s 39.849878110 _4_ AGT  --- 731 ack 40 [0 0 0 0] ------- [4:0 0:0 32 0] [338 0] 0 0
r 39.849878110 _4_ RTR  --- 731 ack 40 [0 0 0 0] ------- [4:0 0:0 32 0] [338 0] 0 0
s 39.849878110 _4_ RTR  --- 731 ack 40 [0 0 0 0] ------- [4:0 0:0 30 19] [338 0] 0 0
r 39.852024023 _19_ RTR  --- 731 ack 40 [13a 13 4 800] ------- [4:0 0:0 30 19] [338 0] 1 0
f 39.852024023 _19_ RTR  --- 731 ack 40 [13a 13 4 800] ------- [4:0 0:0 29 5] [338 0] 1 0
r 39.866089936 _4_ AGT  --- 710 tcp 1540 [13a 4 13 800] ------- [0:0 4:0 28 4] [339 0] 3 0
s 39.866089936 _4_ AGT  --- 732 ack 40 [0 0 0 0] ------- [4:0 0:0 32 0] [339 0] 0 0
r 39.866089936 _4_ RTR  --- 732 ack 40 [0 0 0 0] ------- [4:0 0:0 32 0] [339 0] 0 0
s 39.866089936 _4_ RTR  --- 732 ack 40 [0 0 0 0] ------- [4:0 0:0 30 19] [339 0] 0 0
r 39.867935848 _19_ RTR  --- 732 ack 40 [13a 13 4 800] ------- [4:0 0:0 30 19] [339 0] 1 0
f 39.867935848 _19_ RTR  --- 732 ack 40 [13a 13 4 800] ------- [4:0 0:0 29 5] [339 0] 1 0
r 39.869892516 _0_ AGT  --- 714 ack 40 [13a 0 5 800] ------- [4:0 0:0 28 0] [334 0] 3 0
s 39.869892516 _0_ AGT  --- 733 tcp 1540 [0 0 0 0] ------- [0:0 4:0 32 0] [335 0] 0 0
r 39.869892516 _0_ RTR  --- 733 tcp 1540 [0 0 0 0] ------- [0:0 4:0 32 0] [335 0] 0 0
s 39.869892516 _0_ AGT  --- 734 tcp 1540 [0 0 0 0] ------- [0:0 4:0 32 0] [336 0] 0 0
r 39.869892516 _0_ RTR  --- 734 tcp 1540 [0 0 0 0] ------- [0:0 4:0 32 0] [336 0] 0 0
s 39.869892516 _0_ AGT  --- 735 tcp 1540 [0 0 0 0] ------- [0:0 4:0 32 0] [337 0] 0 0
r 39.869892516 _0_ RTR  --- 735 tcp 1540 [0 0 0 0] ------- [0:0 4:0 32 0] [337 0] 0 0
s 39.869892516 _0_ AGT  --- 736 tcp 1540 [0 0 0 0] ------- [0:0 4:0 32 0] [338 0] 0 0
r 39.869892516 _0_ RTR  --- 736 tcp 1540 [0 0 0 0] ------- [0:0 4:0 32 0] [338 0] 0 0
s 39.869892516 _0_ AGT  --- 737 tcp 1540 [0 0 0 0] ------- [0:0 4:0 32 0] [339 0] 0 0
r 39.869892516 _0_ RTR  --- 737 tcp 1540 [0 0 0 0] ------- [0:0 4:0 32 0] [339 0] 0 0
s 39.869892516 _0_ AGT  --- 738 tcp 1540 [0 0 0 0] ------- [0:0 4:0 32 0] [340 0] 0 0
r 39.869892516 _0_ RTR  --- 738 tcp 1540 [0 0 0 0] ------- [0:0 4:0 32 0] [340 0] 0 0
s 39.869892516 _0_ AGT  --- 739 tcp 1540 [0 0 0 0] ------- [0:0 4:0 32 0] [341 0] 0 0
r 39.869892516 _0_ RTR  --- 739 tcp 1540 [0 0 0 0] ------- [0:0 4:0 32 0] [341 0] 0 0
s 39.869892516 _0_ RTR  --- 733 tcp 1540 [0 0 0 0] ------- [0:0 4:0 30 5] [335 0] 0 0
s 39.869892516 _0_ RTR  --- 734 tcp 1540 [0 0 0 0] ------- [0:0 4:0 30 5] [336 0] 0 0
s 39.869892516 _0_ RTR  --- 735 tcp 1540 [0 0 0 0] ------- [0:0 4:0 30 5] [337 0] 0 0
s 39.869892516 _0_ RTR  --- 736 tcp 1540 [0 0 0 0] ------- [0:0 4:0 30 5] [338 0] 0 0
s 39.869892516 _0_ RTR  --- 737 tcp 1540 [0 0 0 0] ------- [0:0 4:0 30 5] [339 0] 0 0
s 39.869892516 _0_ RTR  --- 738 tcp 1540 [0 0 0 0] ------- [0:0 4:0 30 5] [340 0] 0 0
s 39.869892516 _0_ RTR  --- 739 tcp 1540 [0 0 0 0] ------- [0:0 4:0 30 5] [341 0] 0 0
r 39.883838447 _5_ RTR  --- 729 tcp 1540 [13a 5 0 800] ------- [0:0 4:0 30 5] [331 0] 1 0
f 39.883838447 _5_ RTR  --- 729 tcp 1540 [13a 5 0 800] ------- [0:0 4:0 29 19] [331 0] 1 0
r 39.897724694 _19_ RTR  --- 729 tcp 1540 [13a 13 5 800] ------- [0:0 4:0 29 19] [331 0] 2 0
f 39.897724694 _19_ RTR  --- 729 tcp 1540 [13a 13 5 800] ------- [0:0 4:0 28 4] [331 0] 2 0
r 39.911930605 _4_ AGT  --- 716 tcp 1540 [13a 4 13 800] ------- [0:0 4:0 28 4] [340 0] 3 0
s 39.911930605 _4_ AGT  --- 740 ack 40 [0 0 0 0] ------- [4:0 0:0 32 0] [340 0] 0 0
r 39.911930605 _4_ RTR  --- 740 ack 40 [0 0 0 0] ------- [4:0 0:0 32 0] [340 0] 0 0
s 39.911930605 _4_ RTR  --- 740 ack 40 [0 0 0 0] ------- [4:0 0:0 30 19] [340 0] 0 0
r 39.913776514 _19_ RTR  --- 740 ack 40 [13a 13 4 800] ------- [4:0 0:0 30 19] [340 0] 1 0
f 39.913776514 _19_ RTR  --- 740 ack 40 [13a 13 4 800] ------- [4:0 0:0 29 5] [340 0] 1 0
r 39.927702423 _4_ AGT  --- 717 tcp 1540 [13a 4 13 800] ------- [0:0 4:0 28 4] [341 0] 3 0
s 39.927702423 _4_ AGT  --- 741 ack 40 [0 0 0 0] ------- [4:0 0:0 32 0] [341 0] 0 0
r 39.927702423 _4_ RTR  --- 741 ack 40 [0 0 0 0] ------- [4:0 0:0 32 0] [341 0] 0 0
s 39.927702423 _4_ RTR  --- 741 ack 40 [0 0 0 0] ------- [4:0 0:0 30 19] [341 0] 0 0
r 39.929829311 _5_ RTR  --- 715 ack 40 [13a 5 13 800] ------- [4:0 0:0 29 5] [335 0] 2 0
f 39.929829311 _5_ RTR  --- 715 ack 40 [13a 5 13 800] ------- [4:0 0:0 28 0] [335 0] 2 0
r 39.931815237 _0_ AGT  --- 715 ack 40 [13a 0 5 800] ------- [4:0 0:0 28 0] [335 0] 3 0
s 39.931815237 _0_ AGT  --- 742 tcp 1540 [0 0 0 0] ------- [0:0 4:0 32 0] [342 0] 0 0
r 39.931815237 _0_ RTR  --- 742 tcp 1540 [0 0 0 0] ------- [0:0 4:0 32 0] [342 0] 0 0
s 39.931815237 _0_ AGT  --- 743 tcp 1540 [0 0 0 0] ------- [0:0 4:0 32 0] [343 0] 0 0
r 39.931815237 _0_ RTR  --- 743 tcp 1540 [0 0 0 0] ------- [0:0 4:0 32 0] [343 0] 0 0
s 39.931815237 _0_ RTR  --- 742 tcp 1540 [0 0 0 0] ------- [0:0 4:0 30 5] [342 0] 0 0
s 39.931815237 _0_ RTR  --- 743 tcp 1540 [0 0 0 0] ------- [0:0 4:0 30 5] [343 0] 0 0
r 39.945861162 _5_ RTR  --- 730 tcp 1540 [13a 5 0 800] ------- [0:0 4:0 30 5] [332 0] 1 0
f 39.945861162 _5_ RTR  --- 730 tcp 1540 [13a 5 0 800] ------- [0:0 4:0 29 19] [332 0] 1 0
r 39.959937471 _4_ AGT  --- 718 tcp 1540 [13a 4 13 800] ------- [0:0 4:0 28 4] [322 0] 3 0
s 39.959937471 _4_ AGT  --- 744 ack 40 [0 0 0 0] ------- [4:0 0:0 32 0] [341 0] 0 0
r 39.959937471 _4_ RTR  --- 744 ack 40 [0 0 0 0] ------- [4:0 0:0 32 0] [341 0] 0 0
s 39.959937471 _4_ RTR  --- 744 ack 40 [0 0 0 0] ------- [4:0 0:0 30 19] [341 0] 0 0
r 39.961843378 _19_ RTR  --- 741 ack 40 [13a 13 4 800] ------- [4:0 0:0 30 19] [341 0] 1 0
f 39.961843378 _19_ RTR  --- 741 ack 40 [13a 13 4 800] ------- [4:0 0:0 29 5] [341 0] 1 0
r 39.963909920 _19_ RTR  --- 744 ack 40 [13a 13 4 800] ------- [4:0 0:0 30 19] [341 0] 1 0
f 39.963909920 _19_ RTR  --- 744 ack 40 [13a 13 4 800] ------- [4:0 0:0 29 5] [341 0] 1 0
r 39.977815826 _4_ AGT  --- 719 tcp 1540 [13a 4 13 800] ------- [0:0 4:0 28 4] [323 0] 3 0
s 39.977815826 _4_ AGT  --- 745 ack 40 [0 0 0 0] ------- [4:0 0:0 32 0] [341 0] 0 0
r 39.977815826 _4_ RTR  --- 745 ack 40 [0 0 0 0] ------- [4:0 0:0 32 0] [341 0] 0 0
s 39.977815826 _4_ RTR  --- 745 ack 40 [0 0 0 0] ------- [4:0 0:0 30 19] [341 0] 0 0
r 39.991782367 _4_ AGT  --- 720 tcp 1540 [13a 4 13 800] ------- [0:0 4:0 28 4] [324 0] 3 0
s 39.991782367 _4_ AGT  --- 746 ack 40 [0 0 0 0] ------- [4:0 0:0 32 0] [341 0] 0 0
r 39.991782367 _4_ RTR  --- 746 ack 40 [0 0 0 0] ------- [4:0 0:0 32 0] [341 0] 0 0
s 39.991782367 _4_ RTR  --- 746 ack 40 [0 0 0 0] ------- [4:0 0:0 30 19] [341 0] 0 0
r 39.993669260 _5_ RTR  --- 724 ack 40 [13a 5 13 800] ------- [4:0 0:0 29 5] [336 0] 2 0
f 39.993669260 _5_ RTR  --- 724 ack 40 [13a 5 13 800] ------- [4:0 0:0 28 0] [336 0] 2 0
r 40.007635518 _19_ RTR  --- 730 tcp 1540 [13a 13 5 800] ------- [0:0 4:0 29 19] [332 0] 2 0
f 40.007635518 _19_ RTR  --- 730 tcp 1540 [13a 13 5 800] ------- [0:0 4:0 28 4] [332 0] 2 0
r 40.021521422 _4_ AGT  --- 721 tcp 1540 [13a 4 13 800] ------- [0:0 4:0 28 4] [325 0] 3 0
s 40.021521422 _4_ AGT  --- 747 ack 40 [0 0 0 0] ------- [4:0 0:0 32 0] [341 0] 0 0
r 40.021521422 _4_ RTR  --- 747 ack 40 [0 0 0 0] ------- [4:0 0:0 32 0] [341 0] 0 0
s 40.021521422 _4_ RTR  --- 747 ack 40 [0 0 0 0] ------- [4:0 0:0 30 19] [341 0] 0 0
r 40.035547959 _4_ AGT  --- 722 tcp 1540 [13a 4 13 800] ------- [0:0 4:0 28 4] [326 0] 3 0
s 40.035547959 _4_ AGT  --- 748 ack 40 [0 0 0 0] ------- [4:0 0:0 32 0] [341 0] 0 0
r 40.035547959 _4_ RTR  --- 748 ack 40 [0 0 0 0] ------- [4:0 0:0 32 0] [341 0] 0 0
s 40.035547959 _4_ RTR  --- 748 ack 40 [0 0 0 0] ------- [4:0 0:0 30 19] [341 0] 0 0
r 40.037473861 _19_ RTR  --- 745 ack 40 [13a 13 4 800] ------- [4:0 0:0 30 19] [341 0] 1 0
f 40.037473861 _19_ RTR  --- 745 ack 40 [13a 13 4 800] ------- [4:0 0:0 29 5] [341 0] 1 0
r 40.051339763 _4_ AGT  --- 723 tcp 1540 [13a 4 13 800] ------- [0:0 4:0 28 4] [327 0] 3 0
s 40.051339763 _4_ AGT  --- 749 ack 40 [0 0 0 0] ------- [4:0 0:0 32 0] [341 0] 0 0
r 40.051339763 _4_ RTR  --- 749 ack 40 [0 0 0 0] ------- [4:0 0:0 32 0] [341 0] 0 0
s 40.051339763 _4_ RTR  --- 749 ack 40 [0 0 0 0] ------- [4:0 0:0 30 19] [341 0] 0 0
r 40.053385664 _19_ RTR  --- 746 ack 40 [13a 13 4 800] ------- [4:0 0:0 30 19] [341 0] 1 0
f 40.053385664 _19_ RTR  --- 746 ack 40 [13a 13 4 800] ------- [4:0 0:0 29 5] [341 0] 1 0
r 40.055232199 _19_ RTR  --- 747 ack 40 [13a 13 4 800] ------- [4:0 0:0 30 19] [341 0] 1 0
f 40.055232199 _19_ RTR  --- 747 ack 40 [13a 13 4 800] ------- [4:0 0:0 29 5] [341 0] 1 0
r 40.057098734 _19_ RTR  --- 748 ack 40 [13a 13 4 800] ------- [4:0 0:0 30 19] [341 0] 1 0
f 40.057098734 _19_ RTR  --- 748 ack 40 [13a 13 4 800] ------- [4:0 0:0 29 5] [341 0] 1 0
r 40.058925268 _19_ RTR  --- 749 ack 40 [13a 13 4 800] ------- [4:0 0:0 30 19] [341 0] 1 0
f 40.058925268 _19_ RTR  --- 749 ack 40 [13a 13 4 800] ------- [4:0 0:0 29 5] [341 0] 1 0
r 40.060771533 _5_ RTR  --- 726 ack 40 [13a 5 13 800] ------- [4:0 0:0 29 5] [337 0] 2 0
f 40.060771533 _5_ RTR  --- 726 ack 40 [13a 5 13 800] ------- [4:0 0:0 28 0] [337 0] 2 0
r 40.074667735 _5_ RTR  --- 733 tcp 1540 [13a 5 0 800] ------- [0:0 4:0 30 5] [335 0] 1 0
f 40.074667735 _5_ RTR  --- 733 tcp 1540 [13a 5 0 800] ------- [0:0 4:0 29 19] [335 0] 1 0
r 40.076693646 _0_ AGT  --- 724 ack 40 [13a 0 5 800] ------- [4:0 0:0 28 0] [336 0] 3 0
s 40.076693646 _0_ AGT  --- 750 tcp 1540 [0 0 0 0] ------- [0:0 4:0 32 0] [344 0] 0 0
r 40.076693646 _0_ RTR  --- 750 tcp 1540 [0 0 0 0] ------- [0:0 4:0 32 0] [344 0] 0 0
s 40.076693646 _0_ AGT  --- 751 tcp 1540 [0 0 0 0] ------- [0:0 4:0 32 0] [345 0] 0 0
r 40.076693646 _0_ RTR  --- 751 tcp 1540 [0 0 0 0] ------- [0:0 4:0 32 0] [345 0] 0 0
s 40.076693646 _0_ RTR  --- 750 tcp 1540 [0 0 0 0] ------- [0:0 4:0 30 5] [344 0] 0 0
s 40.076693646 _0_ RTR  --- 751 tcp 1540 [0 0 0 0] ------- [0:0 4:0 30 5] [345 0] 0 0
r 40.090559558 _5_ RTR  --- 734 tcp 1540 [13a 5 0 800] ------- [0:0 4:0 30 5] [336 0] 1 0
f 40.090559558 _5_ RTR  --- 734 tcp 1540 [13a 5 0 800] ------- [0:0 4:0 29 19] [336 0] 1 0
r 40.092405468 _0_ AGT  --- 726 ack 40 [13a 0 5 800] ------- [4:0 0:0 28 0] [337 0] 3 0
s 40.092405468 _0_ AGT  --- 752 tcp 1540 [0 0 0 0] ------- [0:0 4:0 32 0] [346 0] 0 0
r 40.092405468 _0_ RTR  --- 752 tcp 1540 [0 0 0 0] ------- [0:0 4:0 32 0] [346 0] 0 0
s 40.092405468 _0_ AGT  --- 753 tcp 1540 [0 0 0 0] ------- [0:0 4:0 32 0] [347 0] 0 0
r 40.092405468 _0_ RTR  --- 753 tcp 1540 [0 0 0 0] ------- [0:0 4:0 32 0] [347 0] 0 0
s 40.092405468 _0_ RTR  --- 752 tcp 1540 [0 0 0 0] ------- [0:0 4:0 30 5] [346 0] 0 0
s 40.092405468 _0_ RTR  --- 753 tcp 1540 [0 0 0 0] ------- [0:0 4:0 30 5] [347 0] 0 0
r 40.106232372 _19_ RTR  --- 733 tcp 1540 [13a 13 5 800] ------- [0:0 4:0 29 19] [335 0] 2 0
f 40.106232372 _19_ RTR  --- 733 tcp 1540 [13a 13 5 800] ------- [0:0 4:0 28 4] [335 0] 2 0