n -t * -s 0  -x 500 -y 886 -Z 0 -z 25  -v circle -c black
n -t * -s 1  -x 725 -y 439 -Z 0 -z 25  -v circle -c black
n -t * -s 2  -x 445 -y 108 -Z 0 -z 25  -v circle -c black
n -t * -s 3  -x 148 -y 52 -Z 0 -z 25  -v circle -c black
n -t * -s 4  -x 496 -y 257 -Z 0 -z 25  -v circle -c black
n -t * -s 5  -x 887 -y 393 -Z 0 -z 25  -v circle -c black
n -t * -s 6  -x 178 -y 650 -Z 0 -z 25  -v circle -c black
n -t * -s 7  -x 668 -y 305 -Z 0 -z 25  -v circle -c black
n -t * -s 8  -x 877 -y 100 -Z 0 -z 25  -v circle -c black
n -t * -s 9  -x 313 -y 166 -Z 0 -z 25  -v circle -c black
n -t * -s 10  -x 927 -y 711 -Z 0 -z 25  -v circle -c black
n -t * -s 11  -x 792 -y 725 -Z 0 -z 25  -v circle -c black
n -t * -s 12  -x 845 -y 795 -Z 0 -z 25  -v circle -c black
n -t * -s 13  -x 838 -y 374 -Z 0 -z 25  -v circle -c black
n -t * -s 14  -x 981 -y 706 -Z 0 -z 25  -v circle -c black
n -t * -s 15  -x 376 -y 302 -Z 0 -z 25  -v circle -c black
n -t * -s 16  -x 753 -y 973 -Z 0 -z 25  -v circle -c black
n -t * -s 17  -x 814 -y 873 -Z 0 -z 25  -v circle -c black
n -t * -s 18  -x 854 -y 198 -Z 0 -z 25  -v circle -c black
n -t * -s 19  -x 716 -y 614 -Z 0 -z 25  -v circle -c black
n -t * -s 20  -x 327 -y 864 -Z 0 -z 25  -v circle -c black
n -t * -s 21  -x 516 -y 277 -Z 0 -z 25  -v circle -c black
n -t * -s 22  -x 136 -y 670 -Z 0 -z 25  -v circle -c black
n -t * -s 23  -x 770 -y 140 -Z 0 -z 25  -v circle -c black
n -t * -s 24  -x 359 -y 688 -Z 0 -z 25  -v circle -c black
V -t * -v 1.0a5 -a 0
W -t * -x 1000 -y 1000
A -t * -n 1 -p 0 -o 0x7fffffff -c 30 -a 1
A -t * -h 1 -m 1073741823 -s 0
n -t 1.000000 -s 0 -x 500.000000 -y 886.000000 -U 2.008247 -V -2.228664 -T 204.158163
n -t 1.000000 -s 1 -x 725.000000 -y 439.000000 -U -1.464483 -V -7.864813 -T 18.436547
n -t 1.000000 -s 2 -x 445.000000 -y 108.000000 -U 3.652197 -V 5.971722 -T 118.558777
n -t 1.000000 -s 3 -x 148.000000 -y 52.000000 -U 1.456660 -V 1.370454 -T 452.404962
n -t 1.000000 -s 4 -x 496.000000 -y 257.000000 -U 1.982296 -V 2.251778 -T 218.938094
n -t 1.000000 -s 5 -x 887.000000 -y 393.000000 -U -3.469399 -V 8.304413 -T 54.188058
n -t 1.000000 -s 6 -x 178.000000 -y 650.000000 -U 3.330384 -V -2.215522 -T 140.824581
n -t 1.000000 -s 7 -x 668.000000 -y 305.000000 -U -1.909433 -V 0.595033 -T 225.197691
n -t 1.000000 -s 8 -x 877.000000 -y 100.000000 -U -6.240423 -V 6.485146 -T 8.172522
n -t 1.000000 -s 9 -x 313.000000 -y 166.000000 -U 4.680452 -V 5.205129 -T 120.073872
n -t 1.000000 -s 10 -x 927.000000 -y 711.000000 -U -2.944689 -V 0.573417 -T 231.943001
n -t 1.000000 -s 11 -x 792.000000 -y 725.000000 -U 0.635079 -V -9.979813 -T 44.089001
n -t 1.000000 -s 12 -x 845.000000 -y 795.000000 -U -3.163410 -V -3.872059 -T 176.391950
n -t 1.000000 -s 13 -x 838.000000 -y 374.000000 -U -8.017767 -V -4.088449 -T 81.693571
n -t 1.000000 -s 14 -x 981.000000 -y 706.000000 -U -2.110705 -V -2.131883 -T 283.317647
n -t 1.000000 -s 15 -x 376.000000 -y 302.000000 -U 4.906244 -V 0.963727 -T 102.726238
n -t 1.000000 -s 16 -x 753.000000 -y 973.000000 -U -0.361646 -V -0.932316 -T 602.800133
n -t 1.000000 -s 17 -x 814.000000 -y 873.000000 -U -0.832640 -V -0.553814 -T 781.850369
n -t 1.000000 -s 18 -x 854.000000 -y 198.000000 -U -5.497878 -V -2.402776 -T 49.109854
n -t 1.000000 -s 19 -x 716.000000 -y 614.000000 -U -0.932388 -V -2.851430 -T 202.705314
n -t 1.000000 -s 20 -x 327.000000 -y 864.000000 -U 0.982549 -V -4.902509 -T 97.705066
n -t 1.000000 -s 21 -x 516.000000 -y 277.000000 -U 5.030508 -V 7.462841 -T 72.358504
n -t 1.000000 -s 22 -x 136.000000 -y 670.000000 -U 3.041270 -V -2.598207 -T 182.818387
n -t 1.000000 -s 23 -x 770.000000 -y 140.000000 -U 0.820398 -V -0.571793 -T 201.121854
n -t 1.000000 -s 24 -x 359.000000 -y 688.000000 -U 2.588733 -V 5.412805 -T 38.242646
+ -t 1.000000000 -s 0 -d -1 -p tcp -e 40 -c 2 -a 0 -i 0 -k AGT 
- -t 1.000000000 -s 0 -d -1 -p tcp -e 40 -c 2 -a 0 -i 0 -k AGT
h -t 1.000000000 -s 0 -d -1 -p tcp -e 40 -c 2 -a 0 -i 0 -k AGT
+ -t 1.000000000 -s 0 -d -1 -p AODV -e 48 -c 2 -a 0 -i 0 -k RTR 
- -t 1.000000000 -s 0 -d -1 -p AODV -e 48 -c 2 -a 0 -i 0 -k RTR
h -t 1.000000000 -s 0 -d -1 -p AODV -e 48 -c 2 -a 0 -i 0 -k RTR
r -t 1.000988581 -s 20 -d -1 -p AODV -e 48 -c 2 -a 0 -i 0 -k RTR
r -t 1.000988810 -s 24 -d -1 -p AODV -e 48 -c 2 -a 0 -i 0 -k RTR
+ -t 1.001869808 -s 20 -d -1 -p AODV -e 48 -c 2 -a 0 -i 0 -k RTR 
- -t 1.001869808 -s 20 -d -1 -p AODV -e 48 -c 2 -a 0 -i 0 -k RTR
h -t 1.001869808 -s 20 -d -1 -p AODV -e 48 -c 2 -a 0 -i 0 -k RTR
r -t 1.002818389 -s 0 -d -1 -p AODV -e 48 -c 2 -a 0 -i 0 -k RTR
r -t 1.002818404 -s 24 -d -1 -p AODV -e 48 -c 2 -a 0 -i 0 -k RTR
+ -t 1.005400544 -s 24 -d -1 -p AODV -e 48 -c 2 -a 0 -i 0 -k RTR 
- -t 1.005400544 -s 24 -d -1 -p AODV -e 48 -c 2 -a 0 -i 0 -k RTR
h -t 1.005400544 -s 24 -d -1 -p AODV -e 48 -c 2 -a 0 -i 0 -k RTR
r -t 1.006549140 -s 20 -d -1 -p AODV -e 48 -c 2 -a 0 -i 0 -k RTR
r -t 1.006549161 -s 6 -d -1 -p AODV -e 48 -c 2 -a 0 -i 0 -k RTR
r -t 1.006549290 -s 22 -d -1 -p AODV -e 48 -c 2 -a 0 -i 0 -k RTR
r -t 1.006549354 -s 0 -d -1 -p AODV -e 48 -c 2 -a 0 -i 0 -k RTR
+ -t 1.009640080 -s 22 -d -1 -p AODV -e 48 -c 2 -a 0 -i 0 -k RTR 
- -t 1.009640080 -s 22 -d -1 -p AODV -e 48 -c 2 -a 0 -i 0 -k RTR
h -t 1.009640080 -s 22 -d -1 -p AODV -e 48 -c 2 -a 0 -i 0 -k RTR
r -t 1.010828235 -s 6 -d -1 -p AODV -e 48 -c 2 -a 0 -i 0 -k RTR
r -t 1.010828826 -s 24 -d -1 -p AODV -e 48 -c 2 -a 0 -i 0 -k RTR
+ -t 1.012937812 -s 6 -d -1 -p AODV -e 48 -c 2 -a 0 -i 0 -k RTR 
- -t 1.012937812 -s 6 -d -1 -p AODV -e 48 -c 2 -a 0 -i 0 -k RTR
h -t 1.012937812 -s 6 -d -1 -p AODV -e 48 -c 2 -a 0 -i 0 -k RTR
r -t 1.014425967 -s 22 -d -1 -p AODV -e 48 -c 2 -a 0 -i 0 -k RTR
r -t 1.014426429 -s 24 -d -1 -p AODV -e 48 -c 2 -a 0 -i 0 -k RTR
+ -t 3.000000000 -s 0 -d -1 -p AODV -e 48 -c 2 -a 0 -i 0 -k RTR 
- -t 3.000000000 -s 0 -d -1 -p AODV -e 48 -c 2 -a 0 -i 0 -k RTR
h -t 3.000000000 -s 0 -d -1 -p AODV -e 48 -c 2 -a 0 -i 0 -k RTR
r -t 3.001308591 -s 20 -d -1 -p AODV -e 48 -c 2 -a 0 -i 0 -k RTR
r -t 3.001308767 -s 24 -d -1 -p AODV -e 48 -c 2 -a 0 -i 0 -k RTR
+ -t 3.003056819 -s 24 -d -1 -p AODV -e 48 -c 2 -a 0 -i 0 -k RTR 
- -t 3.003056819 -s 24 -d -1 -p AODV -e 48 -c 2 -a 0 -i 0 -k RTR
h -t 3.003056819 -s 24 -d -1 -p AODV -e 48 -c 2 -a 0 -i 0 -k RTR
r -t 3.004345350 -s 20 -d -1 -p AODV -e 48 -c 2 -a 0 -i 0 -k RTR
r -t 3.004345444 -s 6 -d -1 -p AODV -e 48 -c 2 -a 0 -i 0 -k RTR
r -t 3.004345568 -s 22 -d -1 -p AODV -e 48 -c 2 -a 0 -i 0 -k RTR
r -t 3.004345586 -s 0 -d -1 -p AODV -e 48 -c 2 -a 0 -i 0 -k RTR
+ -t 3.005545158 -s 20 -d -1 -p AODV -e 48 -c 2 -a 0 -i 0 -k RTR 
- -t 3.005545158 -s 20 -d -1 -p AODV -e 48 -c 2 -a 0 -i 0 -k RTR
h -t 3.005545158 -s 20 -d -1 -p AODV -e 48 -c 2 -a 0 -i 0 -k RTR
r -t 3.006513689 -s 24 -d -1 -p AODV -e 48 -c 2 -a 0 -i 0 -k RTR
r -t 3.006513749 -s 0 -d -1 -p AODV -e 48 -c 2 -a 0 -i 0 -k RTR
+ -t 3.006926448 -s 22 -d -1 -p AODV -e 48 -c 2 -a 0 -i 0 -k RTR 
- -t 3.006926448 -s 22 -d -1 -p AODV -e 48 -c 2 -a 0 -i 0 -k RTR
h -t 3.006926448 -s 22 -d -1 -p AODV -e 48 -c 2 -a 0 -i 0 -k RTR
+ -t 3.007832854 -s 6 -d -1 -p AODV -e 48 -c 2 -a 0 -i 0 -k RTR 
- -t 3.007832854 -s 6 -d -1 -p AODV -e 48 -c 2 -a 0 -i 0 -k RTR
h -t 3.007832854 -s 6 -d -1 -p AODV -e 48 -c 2 -a 0 -i 0 -k RTR
r -t 3.008314604 -s 6 -d -1 -p AODV -e 48 -c 2 -a 0 -i 0 -k RTR
r -t 3.008315197 -s 24 -d -1 -p AODV -e 48 -c 2 -a 0 -i 0 -k RTR
r -t 3.009392759 -s 22 -d -1 -p AODV -e 48 -c 2 -a 0 -i 0 -k RTR
r -t 3.009393228 -s 24 -d -1 -p AODV -e 48 -c 2 -a 0 -i 0 -k RTR
+ -t 4.000000000 -s 0 -d -1 -p tcp -e 40 -c 2 -a 0 -i 1 -k AGT 
- -t 4.000000000 -s 0 -d -1 -p tcp -e 40 -c 2 -a 0 -i 1 -k AGT
h -t 4.000000000 -s 0 -d -1 -p tcp -e 40 -c 2 -a 0 -i 1 -k AGT
+ -t 7.000000000 -s 0 -d -1 -p AODV -e 48 -c 2 -a 0 -i 0 -k RTR 
- -t 7.000000000 -s 0 -d -1 -p AODV -e 48 -c 2 -a 0 -i 0 -k RTR
h -t 7.000000000 -s 0 -d -1 -p AODV -e 48 -c 2 -a 0 -i 0 -k RTR
r -t 7.001488610 -s 20 -d -1 -p AODV -e 48 -c 2 -a 0 -i 0 -k RTR
r -t 7.001488684 -s 24 -d -1 -p AODV -e 48 -c 2 -a 0 -i 0 -k RTR
+ -t 7.008262173 -s 24 -d -1 -p AODV -e 48 -c 2 -a 0 -i 0 -k RTR 
- -t 7.008262173 -s 24 -d -1 -p AODV -e 48 -c 2 -a 0 -i 0 -k RTR
h -t 7.008262173 -s 24 -d -1 -p AODV -e 48 -c 2 -a 0 -i 0 -k RTR
r -t 7.009570578 -s 20 -d -1 -p AODV -e 48 -c 2 -a 0 -i 0 -k RTR
r -t 7.009570825 -s 6 -d -1 -p AODV -e 48 -c 2 -a 0 -i 0 -k RTR
r -t 7.009570856 -s 0 -d -1 -p AODV -e 48 -c 2 -a 0 -i 0 -k RTR
r -t 7.009570940 -s 22 -d -1 -p AODV -e 48 -c 2 -a 0 -i 0 -k RTR
+ -t 7.009999676 -s 20 -d -1 -p AODV -e 48 -c 2 -a 0 -i 0 -k RTR 
- -t 7.009999676 -s 20 -d -1 -p AODV -e 48 -c 2 -a 0 -i 0 -k RTR
h -t 7.009999676 -s 20 -d -1 -p AODV -e 48 -c 2 -a 0 -i 0 -k RTR
+ -t 7.010662924 -s 22 -d -1 -p AODV -e 48 -c 2 -a 0 -i 0 -k RTR 
- -t 7.010662924 -s 22 -d -1 -p AODV -e 48 -c 2 -a 0 -i 0 -k RTR
h -t 7.010662924 -s 22 -d -1 -p AODV -e 48 -c 2 -a 0 -i 0 -k RTR
r -t 7.011148081 -s 24 -d -1 -p AODV -e 48 -c 2 -a 0 -i 0 -k RTR
r -t 7.011148287 -s 0 -d -1 -p AODV -e 48 -c 2 -a 0 -i 0 -k RTR
r -t 7.011148474 -s 6 -d -1 -p AODV -e 48 -c 2 -a 0 -i 0 -k RTR
r -t 7.012510679 -s 6 -d -1 -p AODV -e 48 -c 2 -a 0 -i 0 -k RTR
r -t 7.012511288 -s 24 -d -1 -p AODV -e 48 -c 2 -a 0 -i 0 -k RTR
+ -t 7.013626015 -s 6 -d -1 -p AODV -e 48 -c 2 -a 0 -i 0 -k RTR 
- -t 7.013626015 -s 6 -d -1 -p AODV -e 48 -c 2 -a 0 -i 0 -k RTR
h -t 7.013626015 -s 6 -d -1 -p AODV -e 48 -c 2 -a 0 -i 0 -k RTR
r -t 7.014774173 -s 22 -d -1 -p AODV -e 48 -c 2 -a 0 -i 0 -k RTR
r -t 7.014774667 -s 24 -d -1 -p AODV -e 48 -c 2 -a 0 -i 0 -k RTR
r -t 7.014774813 -s 20 -d -1 -p AODV -e 48 -c 2 -a 0 -i 0 -k RTR
+ -t 10.000000000 -s 0 -d -1 -p tcp -e 40 -c 2 -a 0 -i 2 -k AGT 
- -t 10.000000000 -s 0 -d -1 -p tcp -e 40 -c 2 -a 0 -i 2 -k AGT
h -t 10.000000000 -s 0 -d -1 -p tcp -e 40 -c 2 -a 0 -i 2 -k AGT
+ -t 12.500000000 -s 0 -d -1 -p AODV -e 48 -c 2 -a 0 -i 0 -k RTR 
- -t 12.500000000 -s 0 -d -1 -p AODV -e 48 -c 2 -a 0 -i 0 -k RTR
h -t 12.500000000 -s 0 -d -1 -p AODV -e 48 -c 2 -a 0 -i 0 -k RTR
r -t 12.501008579 -s 24 -d -1 -p AODV -e 48 -c 2 -a 0 -i 0 -k RTR
r -t 12.501008641 -s 20 -d -1 -p AODV -e 48 -c 2 -a 0 -i 0 -k RTR
r -t 12.501008826 -s 16 -d -1 -p AODV -e 48 -c 2 -a 0 -i 0 -k RTR
+ -t 12.502239861 -s 16 -d -1 -p AODV -e 48 -c 2 -a 0 -i 0 -k RTR 
- -t 12.502239861 -s 16 -d -1 -p AODV -e 48 -c 2 -a 0 -i 0 -k RTR
h -t 12.502239861 -s 16 -d -1 -p AODV -e 48 -c 2 -a 0 -i 0 -k RTR
r -t 12.503368229 -s 17 -d -1 -p AODV -e 48 -c 2 -a 0 -i 0 -k RTR
r -t 12.503368594 -s 12 -d -1 -p AODV -e 48 -c 2 -a 0 -i 0 -k RTR
r -t 12.503368686 -s 0 -d -1 -p AODV -e 48 -c 2 -a 0 -i 0 -k RTR
+ -t 12.504365268 -s 20 -d -1 -p AODV -e 48 -c 2 -a 0 -i 0 -k RTR 
- -t 12.504365268 -s 20 -d -1 -p AODV -e 48 -c 2 -a 0 -i 0 -k RTR
h -t 12.504365268 -s 20 -d -1 -p AODV -e 48 -c 2 -a 0 -i 0 -k RTR
r -t 12.505533523 -s 24 -d -1 -p AODV -e 48 -c 2 -a 0 -i 0 -k RTR
r -t 12.505533909 -s 0 -d -1 -p AODV -e 48 -c 2 -a 0 -i 0 -k RTR
r -t 12.505534002 -s 6 -d -1 -p AODV -e 48 -c 2 -a 0 -i 0 -k RTR
r -t 12.505534057 -s 22 -d -1 -p AODV -e 48 -c 2 -a 0 -i 0 -k RTR
+ -t 12.506958853 -s 24 -d -1 -p AODV -e 48 -c 2 -a 0 -i 0 -k RTR 
- -t 12.506958853 -s 24 -d -1 -p AODV -e 48 -c 2 -a 0 -i 0 -k RTR
h -t 12.506958853 -s 24 -d -1 -p AODV -e 48 -c 2 -a 0 -i 0 -k RTR
r -t 12.507987107 -s 20 -d -1 -p AODV -e 48 -c 2 -a 0 -i 0 -k RTR
r -t 12.507987432 -s 0 -d -1 -p AODV -e 48 -c 2 -a 0 -i 0 -k RTR
r -t 12.507987564 -s 6 -d -1 -p AODV -e 48 -c 2 -a 0 -i 0 -k RTR
r -t 12.507987666 -s 22 -d -1 -p AODV -e 48 -c 2 -a 0 -i 0 -k RTR
+ -t 12.508816814 -s 12 -d -1 -p AODV -e 48 -c 2 -a 0 -i 0 -k RTR 
- -t 12.508816814 -s 12 -d -1 -p AODV -e 48 -c 2 -a 0 -i 0 -k RTR
h -t 12.508816814 -s 12 -d -1 -p AODV -e 48 -c 2 -a 0 -i 0 -k RTR
r -t 12.509765116 -s 10 -d -1 -p AODV -e 48 -c 2 -a 0 -i 0 -k RTR
r -t 12.509765201 -s 17 -d -1 -p AODV -e 48 -c 2 -a 0 -i 0 -k RTR
r -t 12.509765283 -s 11 -d -1 -p AODV -e 48 -c 2 -a 0 -i 0 -k RTR
r -t 12.509765358 -s 14 -d -1 -p AODV -e 48 -c 2 -a 0 -i 0 -k RTR
r -t 12.509765475 -s 19 -d -1 -p AODV -e 48 -c 2 -a 0 -i 0 -k RTR
r -t 12.509765548 -s 16 -d -1 -p AODV -e 48 -c 2 -a 0 -i 0 -k RTR
+ -t 12.509790930 -s 22 -d -1 -p AODV -e 48 -c 2 -a 0 -i 0 -k RTR 
- -t 12.509790930 -s 22 -d -1 -p AODV -e 48 -c 2 -a 0 -i 0 -k RTR
h -t 12.509790930 -s 22 -d -1 -p AODV -e 48 -c 2 -a 0 -i 0 -k RTR
+ -t 12.510354962 -s 17 -d -1 -p AODV -e 48 -c 2 -a 0 -i 0 -k RTR 
- -t 12.510354962 -s 17 -d -1 -p AODV -e 48 -c 2 -a 0 -i 0 -k RTR
h -t 12.510354962 -s 17 -d -1 -p AODV -e 48 -c 2 -a 0 -i 0 -k RTR
r -t 12.510979090 -s 6 -d -1 -p AODV -e 48 -c 2 -a 0 -i 0 -k RTR
r -t 12.510979719 -s 20 -d -1 -p AODV -e 48 -c 2 -a 0 -i 0 -k RTR
+ -t 12.511082398 -s 6 -d -1 -p AODV -e 48 -c 2 -a 0 -i 0 -k RTR 
- -t 12.511082398 -s 6 -d -1 -p AODV -e 48 -c 2 -a 0 -i 0 -k RTR
h -t 12.511082398 -s 6 -d -1 -p AODV -e 48 -c 2 -a 0 -i 0 -k RTR
r -t 12.511423330 -s 16 -d -1 -p AODV -e 48 -c 2 -a 0 -i 0 -k RTR
r -t 12.511423349 -s 12 -d -1 -p AODV -e 48 -c 2 -a 0 -i 0 -k RTR
r -t 12.511423540 -s 10 -d -1 -p AODV -e 48 -c 2 -a 0 -i 0 -k RTR
r -t 12.511423761 -s 14 -d -1 -p AODV -e 48 -c 2 -a 0 -i 0 -k RTR
+ -t 12.511832699 -s 14 -d -1 -p AODV -e 48 -c 2 -a 0 -i 0 -k RTR 
- -t 12.511832699 -s 14 -d -1 -p AODV -e 48 -c 2 -a 0 -i 0 -k RTR
h -t 12.511832699 -s 14 -d -1 -p AODV -e 48 -c 2 -a 0 -i 0 -k RTR
r -t 12.512070558 -s 22 -d -1 -p AODV -e 48 -c 2 -a 0 -i 0 -k RTR
r -t 12.512071132 -s 20 -d -1 -p AODV -e 48 -c 2 -a 0 -i 0 -k RTR
r -t 12.512900943 -s 10 -d -1 -p AODV -e 48 -c 2 -a 0 -i 0 -k RTR
r -t 12.512901243 -s 12 -d -1 -p AODV -e 48 -c 2 -a 0 -i 0 -k RTR
r -t 12.512901275 -s 11 -d -1 -p AODV -e 48 -c 2 -a 0 -i 0 -k RTR
r -t 12.512901438 -s 5 -d -1 -p AODV -e 48 -c 2 -a 0 -i 0 -k RTR
r -t 12.512901498 -s 17 -d -1 -p AODV -e 48 -c 2 -a 0 -i 0 -k RTR
+ -t 12.516714847 -s 19 -d -1 -p AODV -e 48 -c 2 -a 0 -i 0 -k RTR 
- -t 12.516714847 -s 19 -d -1 -p AODV -e 48 -c 2 -a 0 -i 0 -k RTR
h -t 12.516714847 -s 19 -d -1 -p AODV -e 48 -c 2 -a 0 -i 0 -k RTR
+ -t 12.517113639 -s 5 -d -1 -p AODV -e 48 -c 2 -a 0 -i 0 -k RTR 
- -t 12.517113639 -s 5 -d -1 -p AODV -e 48 -c 2 -a 0 -i 0 -k RTR
h -t 12.517113639 -s 5 -d -1 -p AODV -e 48 -c 2 -a 0 -i 0 -k RTR
+ -t 12.517492240 -s 11 -d -1 -p AODV -e 48 -c 2 -a 0 -i 0 -k RTR 
- -t 12.517492240 -s 11 -d -1 -p AODV -e 48 -c 2 -a 0 -i 0 -k RTR
h -t 12.517492240 -s 11 -d -1 -p AODV -e 48 -c 2 -a 0 -i 0 -k RTR
r -t 12.517923175 -s 11 -d -1 -p AODV -e 48 -c 2 -a 0 -i 0 -k RTR
r -t 12.517923412 -s 5 -d -1 -p AODV -e 48 -c 2 -a 0 -i 0 -k RTR
r -t 12.517923508 -s 12 -d -1 -p AODV -e 48 -c 2 -a 0 -i 0 -k RTR
r -t 12.517923621 -s 10 -d -1 -p AODV -e 48 -c 2 -a 0 -i 0 -k RTR
r -t 12.517923623 -s 1 -d -1 -p AODV -e 48 -c 2 -a 0 -i 0 -k RTR
r -t 12.518881503 -s 19 -d -1 -p AODV -e 48 -c 2 -a 0 -i 0 -k RTR
r -t 12.518881610 -s 5 -d -1 -p AODV -e 48 -c 2 -a 0 -i 0 -k RTR
r -t 12.518881644 -s 12 -d -1 -p AODV -e 48 -c 2 -a 0 -i 0 -k RTR
r -t 12.518881651 -s 10 -d -1 -p AODV -e 48 -c 2 -a 0 -i 0 -k RTR
r -t 12.518881751 -s 14 -d -1 -p AODV -e 48 -c 2 -a 0 -i 0 -k RTR
+ -t 12.519233278 -s 10 -d -1 -p AODV -e 48 -c 2 -a 0 -i 0 -k RTR 
- -t 12.519233278 -s 10 -d -1 -p AODV -e 48 -c 2 -a 0 -i 0 -k RTR
h -t 12.519233278 -s 10 -d -1 -p AODV -e 48 -c 2 -a 0 -i 0 -k RTR
r -t 12.519920045 -s 11 -d -1 -p AODV -e 48 -c 2 -a 0 -i 0 -k RTR
r -t 12.519920175 -s 19 -d -1 -p AODV -e 48 -c 2 -a 0 -i 0 -k RTR
r -t 12.519920247 -s 13 -d -1 -p AODV -e 48 -c 2 -a 0 -i 0 -k RTR
r -t 12.519920268 -s 1 -d -1 -p AODV -e 48 -c 2 -a 0 -i 0 -k RTR
r -t 12.519920350 -s 14 -d -1 -p AODV -e 48 -c 2 -a 0 -i 0 -k RTR
r -t 12.519920389 -s 10 -d -1 -p AODV -e 48 -c 2 -a 0 -i 0 -k RTR
r -t 12.520878633 -s 14 -d -1 -p AODV -e 48 -c 2 -a 0 -i 0 -k RTR
r -t 12.520878691 -s 12 -d -1 -p AODV -e 48 -c 2 -a 0 -i 0 -k RTR
r -t 12.520878864 -s 11 -d -1 -p AODV -e 48 -c 2 -a 0 -i 0 -k RTR
r -t 12.520878967 -s 17 -d -1 -p AODV -e 48 -c 2 -a 0 -i 0 -k RTR
r -t 12.520879163 -s 19 -d -1 -p AODV -e 48 -c 2 -a 0 -i 0 -k RTR
r -t 12.520879167 -s 5 -d -1 -p AODV -e 48 -c 2 -a 0 -i 0 -k RTR
+ -t 12.523480832 -s 13 -d -1 -p AODV -e 48 -c 2 -a 0 -i 0 -k RTR 
- -t 12.523480832 -s 13 -d -1 -p AODV -e 48 -c 2 -a 0 -i 0 -k RTR
h -t 12.523480832 -s 13 -d -1 -p AODV -e 48 -c 2 -a 0 -i 0 -k RTR
r -t 12.524868976 -s 1 -d -1 -p AODV -e 48 -c 2 -a 0 -i 0 -k RTR
r -t 12.524869168 -s 7 -d -1 -p AODV -e 48 -c 2 -a 0 -i 0 -k RTR
r -t 12.524869376 -s 18 -d -1 -p AODV -e 48 -c 2 -a 0 -i 0 -k RTR
r -t 12.524869417 -s 21 -d -1 -p AODV -e 48 -c 2 -a 0 -i 0 -k RTR
r -t 12.524869469 -s 5 -d -1 -p AODV -e 48 -c 2 -a 0 -i 0 -k RTR
r -t 12.524869471 -s 8 -d -1 -p AODV -e 48 -c 2 -a 0 -i 0 -k RTR
r -t 12.524869487 -s 23 -d -1 -p AODV -e 48 -c 2 -a 0 -i 0 -k RTR
r -t 12.524869602 -s 4 -d -1 -p AODV -e 48 -c 2 -a 0 -i 0 -k RTR
+ -t 12.524869602 -s 4 -d 13 -p AODV -e 44 -c 2 -a 0 -i 0 -k RTR 
- -t 12.524869602 -s 4 -d 13 -p AODV -e 44 -c 2 -a 0 -i 0 -k RTR
h -t 12.524869602 -s 4 -d 13 -p AODV -e 44 -c 2 -a 0 -i 0 -k RTR
+ -t 12.526369260 -s 18 -d -1 -p AODV -e 48 -c 2 -a 0 -i 0 -k RTR 
- -t 12.526369260 -s 18 -d -1 -p AODV -e 48 -c 2 -a 0 -i 0 -k RTR
h -t 12.526369260 -s 18 -d -1 -p AODV -e 48 -c 2 -a 0 -i 0 -k RTR
+ -t 12.526670086 -s 1 -d -1 -p AODV -e 48 -c 2 -a 0 -i 0 -k RTR 
- -t 12.526670086 -s 1 -d -1 -p AODV -e 48 -c 2 -a 0 -i 0 -k RTR
h -t 12.526670086 -s 1 -d -1 -p AODV -e 48 -c 2 -a 0 -i 0 -k RTR
+ -t 12.528605526 -s 23 -d -1 -p AODV -e 48 -c 2 -a 0 -i 0 -k RTR 
- -t 12.528605526 -s 23 -d -1 -p AODV -e 48 -c 2 -a 0 -i 0 -k RTR
h -t 12.528605526 -s 23 -d -1 -p AODV -e 48 -c 2 -a 0 -i 0 -k RTR
+ -t 12.528933192 -s 21 -d -1 -p AODV -e 48 -c 2 -a 0 -i 0 -k RTR 
- -t 12.528933192 -s 21 -d -1 -p AODV -e 48 -c 2 -a 0 -i 0 -k RTR
h -t 12.528933192 -s 21 -d -1 -p AODV -e 48 -c 2 -a 0 -i 0 -k RTR
+ -t 12.529717991 -s 13 -d 5 -p AODV -e 44 -c 2 -a 0 -i 0 -k RTR 
- -t 12.529717991 -s 13 -d 5 -p AODV -e 44 -c 2 -a 0 -i 0 -k RTR
h -t 12.529717991 -s 13 -d 5 -p AODV -e 44 -c 2 -a 0 -i 0 -k RTR
+ -t 12.530330701 -s 8 -d -1 -p AODV -e 48 -c 2 -a 0 -i 0 -k RTR 
- -t 12.530330701 -s 8 -d -1 -p AODV -e 48 -c 2 -a 0 -i 0 -k RTR
h -t 12.530330701 -s 8 -d -1 -p AODV -e 48 -c 2 -a 0 -i 0 -k RTR
r -t 12.531090870 -s 7 -d -1 -p AODV -e 48 -c 2 -a 0 -i 0 -k RTR
r -t 12.531090899 -s 4 -d -1 -p AODV -e 48 -c 2 -a 0 -i 0 -k RTR
r -t 12.531091025 -s 1 -d -1 -p AODV -e 48 -c 2 -a 0 -i 0 -k RTR
r -t 12.531091075 -s 15 -d -1 -p AODV -e 48 -c 2 -a 0 -i 0 -k RTR
r -t 12.531091160 -s 13 -d -1 -p AODV -e 48 -c 2 -a 0 -i 0 -k RTR
r -t 12.531091260 -s 2 -d -1 -p AODV -e 48 -c 2 -a 0 -i 0 -k RTR
r -t 12.531091403 -s 9 -d -1 -p AODV -e 48 -c 2 -a 0 -i 0 -k RTR
+ -t 12.531504427 -s 7 -d -1 -p AODV -e 48 -c 2 -a 0 -i 0 -k RTR 
- -t 12.531504427 -s 7 -d -1 -p AODV -e 48 -c 2 -a 0 -i 0 -k RTR
h -t 12.531504427 -s 7 -d -1 -p AODV -e 48 -c 2 -a 0 -i 0 -k RTR
+ -t 12.532803593 -s 9 -d -1 -p AODV -e 48 -c 2 -a 0 -i 0 -k RTR 
- -t 12.532803593 -s 9 -d -1 -p AODV -e 48 -c 2 -a 0 -i 0 -k RTR
h -t 12.532803593 -s 9 -d -1 -p AODV -e 48 -c 2 -a 0 -i 0 -k RTR
r -t 12.532947930 -s 18 -d -1 -p AODV -e 48 -c 2 -a 0 -i 0 -k RTR
r -t 12.532947967 -s 23 -d -1 -p AODV -e 48 -c 2 -a 0 -i 0 -k RTR
r -t 12.532948437 -s 13 -d -1 -p AODV -e 48 -c 2 -a 0 -i 0 -k RTR
r -t 12.532948559 -s 1 -d -1 -p AODV -e 48 -c 2 -a 0 -i 0 -k RTR
r -t 12.532948599 -s 7 -d -1 -p AODV -e 48 -c 2 -a 0 -i 0 -k RTR
r -t 12.533866095 -s 18 -d -1 -p AODV -e 48 -c 2 -a 0 -i 0 -k RTR
r -t 12.533866135 -s 8 -d -1 -p AODV -e 48 -c 2 -a 0 -i 0 -k RTR
r -t 12.533866621 -s 13 -d -1 -p AODV -e 48 -c 2 -a 0 -i 0 -k RTR
r -t 12.533866710 -s 7 -d -1 -p AODV -e 48 -c 2 -a 0 -i 0 -k RTR
r -t 12.533866721 -s 1 -d -1 -p AODV -e 48 -c 2 -a 0 -i 0 -k RTR
r -t 12.534784865 -s 13 -d -1 -p AODV -e 48 -c 2 -a 0 -i 0 -k RTR
r -t 12.534784961 -s 7 -d -1 -p AODV -e 48 -c 2 -a 0 -i 0 -k RTR
r -t 12.534785171 -s 21 -d -1 -p AODV -e 48 -c 2 -a 0 -i 0 -k RTR
r -t 12.534785375 -s 18 -d -1 -p AODV -e 48 -c 2 -a 0 -i 0 -k RTR
r -t 12.534785380 -s 5 -d -1 -p AODV -e 48 -c 2 -a 0 -i 0 -k RTR
r -t 12.534785389 -s 4 -d -1 -p AODV -e 48 -c 2 -a 0 -i 0 -k RTR
r -t 12.534785476 -s 23 -d -1 -p AODV -e 48 -c 2 -a 0 -i 0 -k RTR
r -t 12.534785482 -s 8 -d -1 -p AODV -e 48 -c 2 -a 0 -i 0 -k RTR
r -t 12.534785498 -s 19 -d -1 -p AODV -e 48 -c 2 -a 0 -i 0 -k RTR
r -t 12.535703504 -s 23 -d -1 -p AODV -e 48 -c 2 -a 0 -i 0 -k RTR
r -t 12.535703507 -s 8 -d -1 -p AODV -e 48 -c 2 -a 0 -i 0 -k RTR
r -t 12.535703918 -s 13 -d -1 -p AODV -e 48 -c 2 -a 0 -i 0 -k RTR
r -t 12.535704029 -s 1 -d -1 -p AODV -e 48 -c 2 -a 0 -i 0 -k RTR
r -t 12.535704050 -s 7 -d -1 -p AODV -e 48 -c 2 -a 0 -i 0 -k RTR
r -t 12.536987163 -s 15 -d -1 -p AODV -e 48 -c 2 -a 0 -i 0 -k RTR
r -t 12.536987232 -s 2 -d -1 -p AODV -e 48 -c 2 -a 0 -i 0 -k RTR
r -t 12.536987340 -s 4 -d -1 -p AODV -e 48 -c 2 -a 0 -i 0 -k RTR
r -t 12.536987627 -s 21 -d -1 -p AODV -e 48 -c 2 -a 0 -i 0 -k RTR
r -t 12.538310012 -s 1 -d -1 -p AODV -e 48 -c 2 -a 0 -i 0 -k RTR
r -t 12.538310067 -s 21 -d -1 -p AODV -e 48 -c 2 -a 0 -i 0 -k RTR
r -t 12.538310108 -s 13 -d -1 -p AODV -e 48 -c 2 -a 0 -i 0 -k RTR
r -t 12.538310207 -s 4 -d -1 -p AODV -e 48 -c 2 -a 0 -i 0 -k RTR
r -t 12.538310447 -s 18 -d -1 -p AODV -e 48 -c 2 -a 0 -i 0 -k RTR
r -t 12.538310467 -s 2 -d -1 -p AODV -e 48 -c 2 -a 0 -i 0 -k RTR
r -t 12.538310484 -s 15 -d -1 -p AODV -e 48 -c 2 -a 0 -i 0 -k RTR
r -t 12.538310515 -s 23 -d -1 -p AODV -e 48 -c 2 -a 0 -i 0 -k RTR
r -t 12.538310573 -s 8 -d -1 -p AODV -e 48 -c 2 -a 0 -i 0 -k RTR
+ -t 12.539149579 -s 2 -d -1 -p AODV -e 48 -c 2 -a 0 -i 0 -k RTR 
- -t 12.539149579 -s 2 -d -1 -p AODV -e 48 -c 2 -a 0 -i 0 -k RTR
h -t 12.539149579 -s 2 -d -1 -p AODV -e 48 -c 2 -a 0 -i 0 -k RTR
+ -t 12.539891032 -s 15 -d -1 -p AODV -e 48 -c 2 -a 0 -i 0 -k RTR 
- -t 12.539891032 -s 15 -d -1 -p AODV -e 48 -c 2 -a 0 -i 0 -k RTR
h -t 12.539891032 -s 15 -d -1 -p AODV -e 48 -c 2 -a 0 -i 0 -k RTR
+ -t 12.542028489 -s 5 -d 14 -p AODV -e 44 -c 2 -a 0 -i 0 -k RTR 
- -t 12.542028489 -s 5 -d 14 -p AODV -e 44 -c 2 -a 0 -i 0 -k RTR
h -t 12.542028489 -s 5 -d 14 -p AODV -e 44 -c 2 -a 0 -i 0 -k RTR
r -t 12.544404293 -s 4 -d -1 -p AODV -e 48 -c 2 -a 0 -i 0 -k RTR
r -t 12.544404352 -s 9 -d -1 -p AODV -e 48 -c 2 -a 0 -i 0 -k RTR
r -t 12.544404478 -s 2 -d -1 -p AODV -e 48 -c 2 -a 0 -i 0 -k RTR
r -t 12.544404489 -s 21 -d -1 -p AODV -e 48 -c 2 -a 0 -i 0 -k RTR
r -t 12.544404700 -s 7 -d -1 -p AODV -e 48 -c 2 -a 0 -i 0 -k RTR
r -t 12.545702847 -s 4 -d -1 -p AODV -e 48 -c 2 -a 0 -i 0 -k RTR
r -t 12.545702910 -s 9 -d -1 -p AODV -e 48 -c 2 -a 0 -i 0 -k RTR
r -t 12.545702967 -s 15 -d -1 -p AODV -e 48 -c 2 -a 0 -i 0 -k RTR
+ -t 12.551120658 -s 14 -d 12 -p AODV -e 44 -c 2 -a 0 -i 0 -k RTR 
- -t 12.551120658 -s 14 -d 12 -p AODV -e 44 -c 2 -a 0 -i 0 -k RTR
h -t 12.551120658 -s 14 -d 12 -p AODV -e 44 -c 2 -a 0 -i 0 -k RTR
+ -t 12.556231471 -s 12 -d 16 -p AODV -e 44 -c 2 -a 0 -i 0 -k RTR 
- -t 12.556231471 -s 12 -d 16 -p AODV -e 44 -c 2 -a 0 -i 0 -k RTR
h -t 12.556231471 -s 12 -d 16 -p AODV -e 44 -c 2 -a 0 -i 0 -k RTR
+ -t 12.561803609 -s 16 -d 0 -p AODV -e 44 -c 2 -a 0 -i 0 -k RTR 
- -t 12.561803609 -s 16 -d 0 -p AODV -e 44 -c 2 -a 0 -i 0 -k RTR
h -t 12.561803609 -s 16 -d 0 -p AODV -e 44 -c 2 -a 0 -i 0 -k RTR
+ -t 12.567116385 -s 0 -d 16 -p tcp -e 40 -c 2 -a 0 -i 0 -k RTR 
- -t 12.567116385 -s 0 -d 16 -p tcp -e 40 -c 2 -a 0 -i 0 -k RTR
h -t 12.567116385 -s 0 -d 16 -p tcp -e 40 -c 2 -a 0 -i 0 -k RTR
+ -t 12.569122861 -s 16 -d 12 -p tcp -e 40 -c 2 -a 0 -i 0 -k RTR 
- -t 12.569122861 -s 16 -d 12 -p tcp -e 40 -c 2 -a 0 -i 0 -k RTR
h -t 12.569122861 -s 16 -d 12 -p tcp -e 40 -c 2 -a 0 -i 0 -k RTR
+ -t 12.571329063 -s 12 -d 14 -p tcp -e 40 -c 2 -a 0 -i 0 -k RTR 
- -t 12.571329063 -s 12 -d 14 -p tcp -e 40 -c 2 -a 0 -i 0 -k RTR
h -t 12.571329063 -s 12 -d 14 -p tcp -e 40 -c 2 -a 0 -i 0 -k RTR
+ -t 12.573394697 -s 14 -d 5 -p tcp -e 40 -c 2 -a 0 -i 0 -k RTR 
- -t 12.573394697 -s 14 -d 5 -p tcp -e 40 -c 2 -a 0 -i 0 -k RTR
h -t 12.573394697 -s 14 -d 5 -p tcp -e 40 -c 2 -a 0 -i 0 -k RTR
+ -t 12.575340911 -s 5 -d 13 -p tcp -e 40 -c 2 -a 0 -i 0 -k RTR 
- -t 12.575340911 -s 5 -d 13 -p tcp -e 40 -c 2 -a 0 -i 0 -k RTR
h -t 12.575340911 -s 5 -d 13 -p tcp -e 40 -c 2 -a 0 -i 0 -k RTR
+ -t 12.577116385 -s 0 -d 16 -p tcp -e 40 -c 2 -a 0 -i 1 -k RTR 
- -t 12.577116385 -s 0 -d 16 -p tcp -e 40 -c 2 -a 0 -i 1 -k RTR
h -t 12.577116385 -s 0 -d 16 -p tcp -e 40 -c 2 -a 0 -i 1 -k RTR
+ -t 12.577326827 -s 13 -d 4 -p tcp -e 40 -c 2 -a 0 -i 0 -k RTR 
- -t 12.577326827 -s 13 -d 4 -p tcp -e 40 -c 2 -a 0 -i 0 -k RTR
h -t 12.577326827 -s 13 -d 4 -p tcp -e 40 -c 2 -a 0 -i 0 -k RTR
+ -t 12.579344305 -s 16 -d 12 -p tcp -e 40 -c 2 -a 0 -i 1 -k RTR 
- -t 12.579344305 -s 16 -d 12 -p tcp -e 40 -c 2 -a 0 -i 1 -k RTR
h -t 12.579344305 -s 16 -d 12 -p tcp -e 40 -c 2 -a 0 -i 1 -k RTR
r -t 12.579753131 -s 4 -d 4 -p tcp -e 40 -c 2 -a 0 -i 0 -k AGT
+ -t 12.579753131 -s 4 -d -1 -p ack -e 40 -c 2 -a 0 -i 3 -k AGT 
- -t 12.579753131 -s 4 -d -1 -p ack -e 40 -c 2 -a 0 -i 3 -k AGT
h -t 12.579753131 -s 4 -d -1 -p ack -e 40 -c 2 -a 0 -i 3 -k AGT
+ -t 12.579753131 -s 4 -d 13 -p ack -e 40 -c 2 -a 0 -i 3 -k RTR 
- -t 12.579753131 -s 4 -d 13 -p ack -e 40 -c 2 -a 0 -i 3 -k RTR
h -t 12.579753131 -s 4 -d 13 -p ack -e 40 -c 2 -a 0 -i 3 -k RTR
+ -t 12.581619434 -s 13 -d 5 -p ack -e 40 -c 2 -a 0 -i 3 -k RTR 
- -t 12.581619434 -s 13 -d 5 -p ack -e 40 -c 2 -a 0 -i 3 -k RTR
h -t 12.581619434 -s 13 -d 5 -p ack -e 40 -c 2 -a 0 -i 3 -k RTR
+ -t 12.587116385 -s 0 -d 16 -p tcp -e 40 -c 2 -a 0 -i 2 -k RTR 
- -t 12.587116385 -s 0 -d 16 -p tcp -e 40 -c 2 -a 0 -i 2 -k RTR
h -t 12.587116385 -s 0 -d 16 -p tcp -e 40 -c 2 -a 0 -i 2 -k RTR
+ -t 12.587165352 -s 5 -d 14 -p ack -e 40 -c 2 -a 0 -i 3 -k RTR 
- -t 12.587165352 -s 5 -d 14 -p ack -e 40 -c 2 -a 0 -i 3 -k RTR
h -t 12.587165352 -s 5 -d 14 -p ack -e 40 -c 2 -a 0 -i 3 -k RTR
+ -t 12.589471564 -s 14 -d 12 -p ack -e 40 -c 2 -a 0 -i 3 -k RTR 
- -t 12.589471564 -s 14 -d 12 -p ack -e 40 -c 2 -a 0 -i 3 -k RTR
h -t 12.589471564 -s 14 -d 12 -p ack -e 40 -c 2 -a 0 -i 3 -k RTR
+ -t 12.591817198 -s 12 -d 16 -p ack -e 40 -c 2 -a 0 -i 3 -k RTR 
- -t 12.591817198 -s 12 -d 16 -p ack -e 40 -c 2 -a 0 -i 3 -k RTR
h -t 12.591817198 -s 12 -d 16 -p ack -e 40 -c 2 -a 0 -i 3 -k RTR
+ -t 12.593723401 -s 16 -d 0 -p ack -e 40 -c 2 -a 0 -i 3 -k RTR 
- -t 12.593723401 -s 16 -d 0 -p ack -e 40 -c 2 -a 0 -i 3 -k RTR
h -t 12.593723401 -s 16 -d 0 -p ack -e 40 -c 2 -a 0 -i 3 -k RTR
+ -t 12.595680160 -s 16 -d 12 -p tcp -e 40 -c 2 -a 0 -i 2 -k RTR 
- -t 12.595680160 -s 16 -d 12 -p tcp -e 40 -c 2 -a 0 -i 2 -k RTR
h -t 12.595680160 -s 16 -d 12 -p tcp -e 40 -c 2 -a 0 -i 2 -k RTR
+ -t 12.598726363 -s 12 -d 14 -p tcp -e 40 -c 2 -a 0 -i 1 -k RTR 
- -t 12.598726363 -s 12 -d 14 -p tcp -e 40 -c 2 -a 0 -i 1 -k RTR
h -t 12.598726363 -s 12 -d 14 -p tcp -e 40 -c 2 -a 0 -i 1 -k RTR
+ -t 12.600871997 -s 14 -d 5 -p tcp -e 40 -c 2 -a 0 -i 1 -k RTR 
- -t 12.600871997 -s 14 -d 5 -p tcp -e 40 -c 2 -a 0 -i 1 -k RTR
h -t 12.600871997 -s 14 -d 5 -p tcp -e 40 -c 2 -a 0 -i 1 -k RTR
+ -t 12.602758208 -s 5 -d 13 -p tcp -e 40 -c 2 -a 0 -i 1 -k RTR 
- -t 12.602758208 -s 5 -d 13 -p tcp -e 40 -c 2 -a 0 -i 1 -k RTR
h -t 12.602758208 -s 5 -d 13 -p tcp -e 40 -c 2 -a 0 -i 1 -k RTR
+ -t 12.604984128 -s 13 -d 4 -p tcp -e 40 -c 2 -a 0 -i 1 -k RTR 
- -t 12.604984128 -s 13 -d 4 -p tcp -e 40 -c 2 -a 0 -i 1 -k RTR
h -t 12.604984128 -s 13 -d 4 -p tcp -e 40 -c 2 -a 0 -i 1 -k RTR
r -t 12.606901573 -s 0 -d 0 -p ack -e 40 -c 2 -a 0 -i 3 -k AGT
+ -t 12.606901573 -s 0 -d -1 -p tcp -e 1540 -c 2 -a 0 -i 4 -k AGT 
- -t 12.606901573 -s 0 -d -1 -p tcp -e 1540 -c 2 -a 0 -i 4 -k AGT
h -t 12.606901573 -s 0 -d -1 -p tcp -e 1540 -c 2 -a 0 -i 4 -k AGT
+ -t 12.606901573 -s 0 -d 16 -p tcp -e 1540 -c 2 -a 0 -i 4 -k RTR 
- -t 12.606901573 -s 0 -d 16 -p tcp -e 1540 -c 2 -a 0 -i 4 -k RTR
h -t 12.606901573 -s 0 -d 16 -p tcp -e 1540 -c 2 -a 0 -i 4 -k RTR
r -t 12.607270429 -s 4 -d 4 -p tcp -e 40 -c 2 -a 0 -i 1 -k AGT
+ -t 12.607270429 -s 4 -d -1 -p ack -e 40 -c 2 -a 0 -i 5 -k AGT 
- -t 12.607270429 -s 4 -d -1 -p ack -e 40 -c 2 -a 0 -i 5 -k AGT
h -t 12.607270429 -s 4 -d -1 -p ack -e 40 -c 2 -a 0 -i 5 -k AGT
+ -t 12.607270429 -s 4 -d 13 -p ack -e 40 -c 2 -a 0 -i 5 -k RTR 
- -t 12.607270429 -s 4 -d 13 -p ack -e 40 -c 2 -a 0 -i 5 -k RTR
h -t 12.607270429 -s 4 -d 13 -p ack -e 40 -c 2 -a 0 -i 5 -k RTR
+ -t 12.609656729 -s 13 -d 5 -p ack -e 40 -c 2 -a 0 -i 5 -k RTR 
- -t 12.609656729 -s 13 -d 5 -p ack -e 40 -c 2 -a 0 -i 5 -k RTR
h -t 12.609656729 -s 13 -d 5 -p ack -e 40 -c 2 -a 0 -i 5 -k RTR
+ -t 12.620728048 -s 16 -d 12 -p tcp -e 1540 -c 2 -a 0 -i 4 -k RTR 
- -t 12.620728048 -s 16 -d 12 -p tcp -e 1540 -c 2 -a 0 -i 4 -k RTR
h -t 12.620728048 -s 16 -d 12 -p tcp -e 1540 -c 2 -a 0 -i 4 -k RTR
+ -t 12.622634251 -s 12 -d 14 -p tcp -e 40 -c 2 -a 0 -i 2 -k RTR 
- -t 12.622634251 -s 12 -d 14 -p tcp -e 40 -c 2 -a 0 -i 2 -k RTR
h -t 12.622634251 -s 12 -d 14 -p tcp -e 40 -c 2 -a 0 -i 2 -k RTR
+ -t 12.636521189 -s 12 -d 14 -p tcp -e 1540 -c 2 -a 0 -i 4 -k RTR 
- -t 12.636521189 -s 12 -d 14 -p tcp -e 1540 -c 2 -a 0 -i 4 -k RTR
h -t 12.636521189 -s 12 -d 14 -p tcp -e 1540 -c 2 -a 0 -i 4 -k RTR
+ -t 12.638486823 -s 14 -d 5 -p tcp -e 40 -c 2 -a 0 -i 2 -k RTR 
- -t 12.638486823 -s 14 -d 5 -p tcp -e 40 -c 2 -a 0 -i 2 -k RTR
h -t 12.638486823 -s 14 -d 5 -p tcp -e 40 -c 2 -a 0 -i 2 -k RTR
+ -t 12.652593002 -s 14 -d 5 -p tcp -e 1540 -c 2 -a 0 -i 4 -k RTR 
- -t 12.652593002 -s 14 -d 5 -p tcp -e 1540 -c 2 -a 0 -i 4 -k RTR
h -t 12.652593002 -s 14 -d 5 -p tcp -e 1540 -c 2 -a 0 -i 4 -k RTR
+ -t 12.654459209 -s 5 -d 13 -p tcp -e 40 -c 2 -a 0 -i 2 -k RTR 
- -t 12.654459209 -s 5 -d 13 -p tcp -e 40 -c 2 -a 0 -i 2 -k RTR
h -t 12.654459209 -s 5 -d 13 -p tcp -e 40 -c 2 -a 0 -i 2 -k RTR
+ -t 12.656545135 -s 13 -d 4 -p tcp -e 40 -c 2 -a 0 -i 2 -k RTR 
- -t 12.656545135 -s 13 -d 4 -p tcp -e 40 -c 2 -a 0 -i 2 -k RTR
h -t 12.656545135 -s 13 -d 4 -p tcp -e 40 -c 2 -a 0 -i 2 -k RTR
+ -t 12.670856719 -s 5 -d 13 -p tcp -e 1540 -c 2 -a 0 -i 4 -k RTR 
- -t 12.670856719 -s 5 -d 13 -p tcp -e 1540 -c 2 -a 0 -i 4 -k RTR
h -t 12.670856719 -s 5 -d 13 -p tcp -e 1540 -c 2 -a 0 -i 4 -k RTR
+ -t 12.684842648 -s 13 -d 4 -p tcp -e 1540 -c 2 -a 0 -i 4 -k RTR 
- -t 12.684842648 -s 13 -d 4 -p tcp -e 1540 -c 2 -a 0 -i 4 -k RTR
h -t 12.684842648 -s 13 -d 4 -p tcp -e 1540 -c 2 -a 0 -i 4 -k RTR