M 1.00000 0 (500.00, 886.00, 0.00), (910.00, 431.00), 3.00
M 1.00000 1 (725.00, 439.00, 0.00), (698.00, 294.00), 8.00
M 1.00000 2 (445.00, 108.00, 0.00), (878.00, 816.00), 7.00
M 1.00000 3 (148.00, 52.00, 0.00), (807.00, 672.00), 2.00
M 1.00000 4 (496.00, 257.00, 0.00), (930.00, 750.00), 3.00
M 1.00000 5 (887.00, 393.00, 0.00), (699.00, 843.00), 9.00
M 1.00000 6 (178.00, 650.00, 0.00), (647.00, 338.00), 4.00
M 1.00000 7 (668.00, 305.00, 0.00), (238.00, 439.00), 2.00
M 1.00000 8 (877.00, 100.00, 0.00), (826.00, 153.00), 9.00
M 1.00000 9 (313.00, 166.00, 0.00), (875.00, 791.00), 7.00
M 1.00000 10 (927.00, 711.00, 0.00), (244.00, 844.00), 3.00
M 1.00000 11 (792.00, 725.00, 0.00), (820.00, 285.00), 10.00
M 1.00000 12 (845.00, 795.00, 0.00), (287.00, 112.00), 5.00
M 1.00000 13 (838.00, 374.00, 0.00), (183.00, 40.00), 9.00
M 1.00000 14 (981.00, 706.00, 0.00), (383.00, 102.00), 3.00
M 1.00000 15 (376.00, 302.00, 0.00), (880.00, 401.00), 5.00
M 1.00000 16 (753.00, 973.00, 0.00), (535.00, 411.00), 1.00
M 1.00000 17 (814.00, 873.00, 0.00), (163.00, 440.00), 1.00
M 1.00000 18 (854.00, 198.00, 0.00), (584.00, 80.00), 6.00
M 1.00000 19 (716.00, 614.00, 0.00), (527.00, 36.00), 3.00
M 1.00000 20 (327.00, 864.00, 0.00), (423.00, 385.00), 5.00
M 1.00000 21 (516.00, 277.00, 0.00), (880.00, 817.00), 9.00
M 1.00000 22 (136.00, 670.00, 0.00), (692.00, 195.00), 4.00
M 1.00000 23 (770.00, 140.00, 0.00), (935.00, 25.00), 1.00
M 1.00000 24 (359.00, 688.00, 0.00), (458.00, 895.00), 6.00
s 1.000000000 _0_ AGT  --- 0 tcp 40 [0 0 0 0] ------- [0:0 4:0 32 0] [0 0] 0 0
r 1.000000000 _0_ RTR  --- 0 tcp 40 [0 0 0 0] ------- [0:0 4:0 32 0] [0 0] 0 0
s 1.000000000 _0_ RTR  --- 0 AODV 48 [0 0 0 0] ------- [0:255 -1:255 30 0] [0x2 1 1 [4 0] [0 4]] (REQUEST)
r 1.000988581 _20_ RTR  --- 0 AODV 48 [0 ffffffff 0 800] ------- [0:255 -1:255 30 0] [0x2 1 1 [4 0] [0 4]] (REQUEST)
r 1.000988810 _24_ RTR  --- 0 AODV 48 [0 ffffffff 0 800] ------- [0:255 -1:255 30 0] [0x2 1 1 [4 0] [0 4]] (REQUEST)
s 1.001869808 _20_ RTR  --- 0 AODV 48 [0 ffffffff 0 800] ------- [20:255 -1:255 29 0] [0x2 2 1 [4 0] [0 4]] (REQUEST)
r 1.002818389 _0_ RTR  --- 0 AODV 48 [0 ffffffff 14 800] ------- [20:255 -1:255 29 0] [0x2 2 1 [4 0] [0 4]] (REQUEST)
r 1.002818404 _24_ RTR  --- 0 AODV 48 [0 ffffffff 14 800] ------- [20:255 -1:255 29 0] [0x2 2 1 [4 0] [0 4]] (REQUEST)
s 1.005400544 _24_ RTR  --- 0 AODV 48 [0 ffffffff 0 800] ------- [24:255 -1:255 29 0] [0x2 2 1 [4 0] [0 4]] (REQUEST)
r 1.006549140 _20_ RTR  --- 0 AODV 48 [0 ffffffff 18 800] ------- [24:255 -1:255 29 0] [0x2 2 1 [4 0] [0 4]] (REQUEST)
r 1.006549161 _6_ RTR  --- 0 AODV 48 [0 ffffffff 18 800] ------- [24:255 -1:255 29 0] [0x2 2 1 [4 0] [0 4]] (REQUEST)
r 1.006549290 _22_ RTR  --- 0 AODV 48 [0 ffffffff 18 800] ------- [24:255 -1:255 29 0] [0x2 2 1 [4 0] [0 4]] (REQUEST)
r 1.006549354 _0_ RTR  --- 0 AODV 48 [0 ffffffff 18 800] ------- [24:255 -1:255 29 0] [0x2 2 1 [4 0] [0 4]] (REQUEST)
s 1.009640080 _22_ RTR  --- 0 AODV 48 [0 ffffffff 18 800] ------- [22:255 -1:255 28 0] [0x2 3 1 [4 0] [0 4]] (REQUEST)
r 1.010828235 _6_ RTR  --- 0 AODV 48 [0 ffffffff 16 800] ------- [22:255 -1:255 28 0] [0x2 3 1 [4 0] [0 4]] (REQUEST)
r 1.010828826 _24_ RTR  --- 0 AODV 48 [0 ffffffff 16 800] ------- [22:255 -1:255 28 0] [0x2 3 1 [4 0] [0 4]] (REQUEST)
s 1.012937812 _6_ RTR  --- 0 AODV 48 [0 ffffffff 18 800] ------- [6:255 -1:255 28 0] [0x2 3 1 [4 0] [0 4]] (REQUEST)
r 1.014425967 _22_ RTR  --- 0 AODV 48 [0 ffffffff 6 800] ------- [6:255 -1:255 28 0] [0x2 3 1 [4 0] [0 4]] (REQUEST)
r 1.014426429 _24_ RTR  --- 0 AODV 48 [0 ffffffff 6 800] ------- [6:255 -1:255 28 0] [0x2 3 1 [4 0] [0 4]] (REQUEST)
s 3.000000000 _0_ RTR  --- 0 AODV 48 [0 0 0 0] ------- [0:255 -1:255 30 0] [0x2 1 2 [4 0] [0 6]] (REQUEST)
r 3.001308591 _20_ RTR  --- 0 AODV 48 [0 ffffffff 0 800] ------- [0:255 -1:255 30 0] [0x2 1 2 [4 0] [0 6]] (REQUEST)
r 3.001308767 _24_ RTR  --- 0 AODV 48 [0 ffffffff 0 800] ------- [0:255 -1:255 30 0] [0x2 1 2 [4 0] [0 6]] (REQUEST)
s 3.003056819 _24_ RTR  --- 0 AODV 48 [0 ffffffff 0 800] ------- [24:255 -1:255 29 0] [0x2 2 2 [4 0] [0 6]] (REQUEST)
r 3.004345350 _20_ RTR  --- 0 AODV 48 [0 ffffffff 18 800] ------- [24:255 -1:255 29 0] [0x2 2 2 [4 0] [0 6]] (REQUEST)
r 3.004345444 _6_ RTR  --- 0 AODV 48 [0 ffffffff 18 800] ------- [24:255 -1:255 29 0] [0x2 2 2 [4 0] [0 6]] (REQUEST)
r 3.004345568 _22_ RTR  --- 0 AODV 48 [0 ffffffff 18 800] ------- [24:255 -1:255 29 0] [0x2 2 2 [4 0] [0 6]] (REQUEST)
r 3.004345586 _0_ RTR  --- 0 AODV 48 [0 ffffffff 18 800] ------- [24:255 -1:255 29 0] [0x2 2 2 [4 0] [0 6]] (REQUEST)
s 3.005545158 _20_ RTR  --- 0 AODV 48 [0 ffffffff 0 800] ------- [20:255 -1:255 29 0] [0x2 2 2 [4 0] [0 6]] (REQUEST)
r 3.006513689 _24_ RTR  --- 0 AODV 48 [0 ffffffff 14 800] ------- [20:255 -1:255 29 0] [0x2 2 2 [4 0] [0 6]] (REQUEST)
r 3.006513749 _0_ RTR  --- 0 AODV 48 [0 ffffffff 14 800] ------- [20:255 -1:255 29 0] [0x2 2 2 [4 0] [0 6]] (REQUEST)
s 3.006926448 _22_ RTR  --- 0 AODV 48 [0 ffffffff 18 800] ------- [22:255 -1:255 28 0] [0x2 3 2 [4 0] [0 6]] (REQUEST)
s 3.007832854 _6_ RTR  --- 0 AODV 48 [0 ffffffff 18 800] ------- [6:255 -1:255 28 0] [0x2 3 2 [4 0] [0 6]] (REQUEST)
r 3.008314604 _6_ RTR  --- 0 AODV 48 [0 ffffffff 16 800] ------- [22:255 -1:255 28 0] [0x2 3 2 [4 0] [0 6]] (REQUEST)
r 3.008315197 _24_ RTR  --- 0 AODV 48 [0 ffffffff 16 800] ------- [22:255 -1:255 28 0] [0x2 3 2 [4 0] [0 6]] (REQUEST)
r 3.009392759 _22_ RTR  --- 0 AODV 48 [0 ffffffff 6 800] ------- [6:255 -1:255 28 0] [0x2 3 2 [4 0] [0 6]] (REQUEST)
r 3.009393228 _24_ RTR  --- 0 AODV 48 [0 ffffffff 6 800] ------- [6:255 -1:255 28 0] [0x2 3 2 [4 0] [0 6]] (REQUEST)
s 4.000000000 _0_ AGT  --- 1 tcp 40 [0 0 0 0] ------- [0:0 4:0 32 0] [0 0] 0 0
r 4.000000000 _0_ RTR  --- 1 tcp 40 [0 0 0 0] ------- [0:0 4:0 32 0] [0 0] 0 0
s 7.000000000 _0_ RTR  --- 0 AODV 48 [0 0 0 0] ------- [0:255 -1:255 30 0] [0x2 1 3 [4 0] [0 8]] (REQUEST)
r 7.001488610 _20_ RTR  --- 0 AODV 48 [0 ffffffff 0 800] ------- [0:255 -1:255 30 0] [0x2 1 3 [4 0] [0 8]] (REQUEST)
r 7.001488684 _24_ RTR  --- 0 AODV 48 [0 ffffffff 0 800] ------- [0:255 -1:255 30 0] [0x2 1 3 [4 0] [0 8]] (REQUEST)
s 7.008262173 _24_ RTR  --- 0 AODV 48 [0 ffffffff 0 800] ------- [24:255 -1:255 29 0] [0x2 2 3 [4 0] [0 8]] (REQUEST)
r 7.009570578 _20_ RTR  --- 0 AODV 48 [0 ffffffff 18 800] ------- [24:255 -1:255 29 0] [0x2 2 3 [4 0] [0 8]] (REQUEST)
r 7.009570825 _6_ RTR  --- 0 AODV 48 [0 ffffffff 18 800] ------- [24:255 -1:255 29 0] [0x2 2 3 [4 0] [0 8]] (REQUEST)
r 7.009570856 _0_ RTR  --- 0 AODV 48 [0 ffffffff 18 800] ------- [24:255 -1:255 29 0] [0x2 2 3 [4 0] [0 8]] (REQUEST)
r 7.009570940 _22_ RTR  --- 0 AODV 48 [0 ffffffff 18 800] ------- [24:255 -1:255 29 0] [0x2 2 3 [4 0] [0 8]] (REQUEST)
s 7.009999676 _20_ RTR  --- 0 AODV 48 [0 ffffffff 0 800] ------- [20:255 -1:255 29 0] [0x2 2 3 [4 0] [0 8]] (REQUEST)
s 7.010662924 _22_ RTR  --- 0 AODV 48 [0 ffffffff 18 800] ------- [22:255 -1:255 28 0] [0x2 3 3 [4 0] [0 8]] (REQUEST)
r 7.011148081 _24_ RTR  --- 0 AODV 48 [0 ffffffff 14 800] ------- [20:255 -1:255 29 0] [0x2 2 3 [4 0] [0 8]] (REQUEST)
r 7.011148287 _0_ RTR  --- 0 AODV 48 [0 ffffffff 14 800] ------- [20:255 -1:255 29 0] [0x2 2 3 [4 0] [0 8]] (REQUEST)
r 7.011148474 _6_ RTR  --- 0 AODV 48 [0 ffffffff 14 800] ------- [20:255 -1:255 29 0] [0x2 2 3 [4 0] [0 8]] (REQUEST)
r 7.012510679 _6_ RTR  --- 0 AODV 48 [0 ffffffff 16 800] ------- [22:255 -1:255 28 0] [0x2 3 3 [4 0] [0 8]] (REQUEST)
r 7.012511288 _24_ RTR  --- 0 AODV 48 [0 ffffffff 16 800] ------- [22:255 -1:255 28 0] [0x2 3 3 [4 0] [0 8]] (REQUEST)
s 7.013626015 _6_ RTR  --- 0 AODV 48 [0 ffffffff 18 800] ------- [6:255 -1:255 28 0] [0x2 3 3 [4 0] [0 8]] (REQUEST)
r 7.014774173 _22_ RTR  --- 0 AODV 48 [0 ffffffff 6 800] ------- [6:255 -1:255 28 0] [0x2 3 3 [4 0] [0 8]] (REQUEST)
r 7.014774667 _24_ RTR  --- 0 AODV 48 [0 ffffffff 6 800] ------- [6:255 -1:255 28 0] [0x2 3 3 [4 0] [0 8]] (REQUEST)
r 7.014774813 _20_ RTR  --- 0 AODV 48 [0 ffffffff 6 800] ------- [6:255 -1:255 28 0] [0x2 3 3 [4 0] [0 8]] (REQUEST)
s 10.000000000 _0_ AGT  --- 2 tcp 40 [0 0 0 0] ------- [0:0 4:0 32 0] [0 0] 0 0
r 10.000000000 _0_ RTR  --- 2 tcp 40 [0 0 0 0] ------- [0:0 4:0 32 0] [0 0] 0 0
s 12.500000000 _0_ RTR  --- 0 AODV 48 [0 0 0 0] ------- [0:255 -1:255 30 0] [0x2 1 4 [4 0] [0 10]] (REQUEST)
r 12.501008579 _24_ RTR  --- 0 AODV 48 [0 ffffffff 0 800] ------- [0:255 -1:255 30 0] [0x2 1 4 [4 0] [0 10]] (REQUEST)
r 12.501008641 _20_ RTR  --- 0 AODV 48 [0 ffffffff 0 800] ------- [0:255 -1:255 30 0] [0x2 1 4 [4 0] [0 10]] (REQUEST)
r 12.501008826 _16_ RTR  --- 0 AODV 48 [0 ffffffff 0 800] ------- [0:255 -1:255 30 0] [0x2 1 4 [4 0] [0 10]] (REQUEST)
s 12.502239861 _16_ RTR  --- 0 AODV 48 [0 ffffffff 0 800] ------- [16:255 -1:255 29 0] [0x2 2 4 [4 0] [0 10]] (REQUEST)
r 12.503368229 _17_ RTR  --- 0 AODV 48 [0 ffffffff 10 800] ------- [16:255 -1:255 29 0] [0x2 2 4 [4 0] [0 10]] (REQUEST)
r 12.503368594 _12_ RTR  --- 0 AODV 48 [0 ffffffff 10 800] ------- [16:255 -1:255 29 0] [0x2 2 4 [4 0] [0 10]] (REQUEST)
r 12.503368686 _0_ RTR  --- 0 AODV 48 [0 ffffffff 10 800] ------- [16:255 -1:255 29 0] [0x2 2 4 [4 0] [0 10]] (REQUEST)
s 12.504365268 _20_ RTR  --- 0 AODV 48 [0 ffffffff 0 800] ------- [20:255 -1:255 29 0] [0x2 2 4 [4 0] [0 10]] (REQUEST)
r 12.505533523 _24_ RTR  --- 0 AODV 48 [0 ffffffff 14 800] ------- [20:255 -1:255 29 0] [0x2 2 4 [4 0] [0 10]] (REQUEST)
r 12.505533909 _0_ RTR  --- 0 AODV 48 [0 ffffffff 14 800] ------- [20:255 -1:255 29 0] [0x2 2 4 [4 0] [0 10]] (REQUEST)
r 12.505534002 _6_ RTR  --- 0 AODV 48 [0 ffffffff 14 800] ------- [20:255 -1:255 29 0] [0x2 2 4 [4 0] [0 10]] (REQUEST)
r 12.505534057 _22_ RTR  --- 0 AODV 48 [0 ffffffff 14 800] ------- [20:255 -1:255 29 0] [0x2 2 4 [4 0] [0 10]] (REQUEST)
s 12.506958853 _24_ RTR  --- 0 AODV 48 [0 ffffffff 0 800] ------- [24:255 -1:255 29 0] [0x2 2 4 [4 0] [0 10]] (REQUEST)
r 12.507987107 _20_ RTR  --- 0 AODV 48 [0 ffffffff 18 800] ------- [24:255 -1:255 29 0] [0x2 2 4 [4 0] [0 10]] (REQUEST)
r 12.507987432 _0_ RTR  --- 0 AODV 48 [0 ffffffff 18 800] ------- [24:255 -1:255 29 0] [0x2 2 4 [4 0] [0 10]] (REQUEST)
r 12.507987564 _6_ RTR  --- 0 AODV 48 [0 ffffffff 18 800] ------- [24:255 -1:255 29 0] [0x2 2 4 [4 0] [0 10]] (REQUEST)
r 12.507987666 _22_ RTR  --- 0 AODV 48 [0 ffffffff 18 800] ------- [24:255 -1:255 29 0] [0x2 2 4 [4 0] [0 10]] (REQUEST)
s 12.508816814 _12_ RTR  --- 0 AODV 48 [0 ffffffff 10 800] ------- [12:255 -1:255 28 0] [0x2 3 4 [4 0] [0 10]] (REQUEST)
r 12.509765116 _10_ RTR  --- 0 AODV 48 [0 ffffffff c 800] ------- [12:255 -1:255 28 0] [0x2 3 4 [4 0] [0 10]] (REQUEST)
r 12.509765201 _17_ RTR  --- 0 AODV 48 [0 ffffffff c 800] ------- [12:255 -1:255 28 0] [0x2 3 4 [4 0] [0 10]] (REQUEST)
r 12.509765283 _11_ RTR  --- 0 AODV 48 [0 ffffffff c 800] ------- [12:255 -1:255 28 0] [0x2 3 4 [4 0] [0 10]] (REQUEST)
r 12.509765358 _14_ RTR  --- 0 AODV 48 [0 ffffffff c 800] ------- [12:255 -1:255 28 0] [0x2 3 4 [4 0] [0 10]] (REQUEST)
r 12.509765475 _19_ RTR  --- 0 AODV 48 [0 ffffffff c 800] ------- [12:255 -1:255 28 0] [0x2 3 4 [4 0] [0 10]] (REQUEST)
r 12.509765548 _16_ RTR  --- 0 AODV 48 [0 ffffffff c 800] ------- [12:255 -1:255 28 0] [0x2 3 4 [4 0] [0 10]] (REQUEST)
s 12.509790930 _22_ RTR  --- 0 AODV 48 [0 ffffffff 14 800] ------- [22:255 -1:255 28 0] [0x2 3 4 [4 0] [0 10]] (REQUEST)
s 12.510354962 _17_ RTR  --- 0 AODV 48 [0 ffffffff 10 800] ------- [17:255 -1:255 28 0] [0x2 3 4 [4 0] [0 10]] (REQUEST)
r 12.510979090 _6_ RTR  --- 0 AODV 48 [0 ffffffff 16 800] ------- [22:255 -1:255 28 0] [0x2 3 4 [4 0] [0 10]] (REQUEST)
r 12.510979719 _20_ RTR  --- 0 AODV 48 [0 ffffffff 16 800] ------- [22:255 -1:255 28 0] [0x2 3 4 [4 0] [0 10]] (REQUEST)
s 12.511082398 _6_ RTR  --- 0 AODV 48 [0 ffffffff 14 800] ------- [6:255 -1:255 28 0] [0x2 3 4 [4 0] [0 10]] (REQUEST)
r 12.511423330 _16_ RTR  --- 0 AODV 48 [0 ffffffff 11 800] ------- [17:255 -1:255 28 0] [0x2 3 4 [4 0] [0 10]] (REQUEST)
r 12.511423349 _12_ RTR  --- 0 AODV 48 [0 ffffffff 11 800] ------- [17:255 -1:255 28 0] [0x2 3 4 [4 0] [0 10]] (REQUEST)
r 12.511423540 _10_ RTR  --- 0 AODV 48 [0 ffffffff 11 800] ------- [17:255 -1:255 28 0] [0x2 3 4 [4 0] [0 10]] (REQUEST)
r 12.511423761 _14_ RTR  --- 0 AODV 48 [0 ffffffff 11 800] ------- [17:255 -1:255 28 0] [0x2 3 4 [4 0] [0 10]] (REQUEST)
s 12.511832699 _14_ RTR  --- 0 AODV 48 [0 ffffffff c 800] ------- [14:255 -1:255 27 0] [0x2 4 4 [4 0] [0 10]] (REQUEST)
r 12.512070558 _22_ RTR  --- 0 AODV 48 [0 ffffffff 6 800] ------- [6:255 -1:255 28 0] [0x2 3 4 [4 0] [0 10]] (REQUEST)
r 12.512071132 _20_ RTR  --- 0 AODV 48 [0 ffffffff 6 800] ------- [6:255 -1:255 28 0] [0x2 3 4 [4 0] [0 10]] (REQUEST)
r 12.512900943 _10_ RTR  --- 0 AODV 48 [0 ffffffff e 800] ------- [14:255 -1:255 27 0] [0x2 4 4 [4 0] [0 10]] (REQUEST)
r 12.512901243 _12_ RTR  --- 0 AODV 48 [0 ffffffff e 800] ------- [14:255 -1:255 27 0] [0x2 4 4 [4 0] [0 10]] (REQUEST)
r 12.512901275 _11_ RTR  --- 0 AODV 48 [0 ffffffff e 800] ------- [14:255 -1:255 27 0] [0x2 4 4 [4 0] [0 10]] (REQUEST)
r 12.512901438 _5_ RTR  --- 0 AODV 48 [0 ffffffff e 800] ------- [14:255 -1:255 27 0] [0x2 4 4 [4 0] [0 10]] (REQUEST)
r 12.512901498 _17_ RTR  --- 0 AODV 48 [0 ffffffff e 800] ------- [14:255 -1:255 27 0] [0x2 4 4 [4 0] [0 10]] (REQUEST)
s 12.516714847 _19_ RTR  --- 0 AODV 48 [0 ffffffff c 800] ------- [19:255 -1:255 27 0] [0x2 4 4 [4 0] [0 10]] (REQUEST)
s 12.517113639 _5_ RTR  --- 0 AODV 48 [0 ffffffff e 800] ------- [5:255 -1:255 26 0] [0x2 5 4 [4 0] [0 10]] (REQUEST)
s 12.517492240 _11_ RTR  --- 0 AODV 48 [0 ffffffff c 800] ------- [11:255 -1:255 27 0] [0x2 4 4 [4 0] [0 10]] (REQUEST)
r 12.517923175 _11_ RTR  --- 0 AODV 48 [0 ffffffff 13 800] ------- [19:255 -1:255 27 0] [0x2 4 4 [4 0] [0 10]] (REQUEST)
r 12.517923412 _5_ RTR  --- 0 AODV 48 [0 ffffffff 13 800] ------- [19:255 -1:255 27 0] [0x2 4 4 [4 0] [0 10]] (REQUEST)
r 12.517923508 _12_ RTR  --- 0 AODV 48 [0 ffffffff 13 800] ------- [19:255 -1:255 27 0] [0x2 4 4 [4 0] [0 10]] (REQUEST)
r 12.517923621 _10_ RTR  --- 0 AODV 48 [0 ffffffff 13 800] ------- [19:255 -1:255 27 0] [0x2 4 4 [4 0] [0 10]] (REQUEST)
r 12.517923623 _1_ RTR  --- 0 AODV 48 [0 ffffffff 13 800] ------- [19:255 -1:255 27 0] [0x2 4 4 [4 0] [0 10]] (REQUEST)
r 12.518881503 _19_ RTR  --- 0 AODV 48 [0 ffffffff b 800] ------- [11:255 -1:255 27 0] [0x2 4 4 [4 0] [0 10]] (REQUEST)
r 12.518881610 _5_ RTR  --- 0 AODV 48 [0 ffffffff b 800] ------- [11:255 -1:255 27 0] [0x2 4 4 [4 0] [0 10]] (REQUEST)
r 12.518881644 _12_ RTR  --- 0 AODV 48 [0 ffffffff b 800] ------- [11:255 -1:255 27 0] [0x2 4 4 [4 0] [0 10]] (REQUEST)
r 12.518881651 _10_ RTR  --- 0 AODV 48 [0 ffffffff b 800] ------- [11:255 -1:255 27 0] [0x2 4 4 [4 0] [0 10]] (REQUEST)
r 12.518881751 _14_ RTR  --- 0 AODV 48 [0 ffffffff b 800] ------- [11:255 -1:255 27 0] [0x2 4 4 [4 0] [0 10]] (REQUEST)
s 12.519233278 _10_ RTR  --- 0 AODV 48 [0 ffffffff c 800] ------- [10:255 -1:255 27 0] [0x2 4 4 [4 0] [0 10]] (REQUEST)
r 12.519920045 _11_ RTR  --- 0 AODV 48 [0 ffffffff 5 800] ------- [5:255 -1:255 26 0] [0x2 5 4 [4 0] [0 10]] (REQUEST)
r 12.519920175 _19_ RTR  --- 0 AODV 48 [0 ffffffff 5 800] ------- [5:255 -1:255 26 0] [0x2 5 4 [4 0] [0 10]] (REQUEST)
r 12.519920247 _13_ RTR  --- 0 AODV 48 [0 ffffffff 5 800] ------- [5:255 -1:255 26 0] [0x2 5 4 [4 0] [0 10]] (REQUEST)
r 12.519920268 _1_ RTR  --- 0 AODV 48 [0 ffffffff 5 800] ------- [5:255 -1:255 26 0] [0x2 5 4 [4 0] [0 10]] (REQUEST)
r 12.519920350 _14_ RTR  --- 0 AODV 48 [0 ffffffff 5 800] ------- [5:255 -1:255 26 0] [0x2 5 4 [4 0] [0 10]] (REQUEST)
r 12.519920389 _10_ RTR  --- 0 AODV 48 [0 ffffffff 5 800] ------- [5:255 -1:255 26 0] [0x2 5 4 [4 0] [0 10]] (REQUEST)
r 12.520878633 _14_ RTR  --- 0 AODV 48 [0 ffffffff a 800] ------- [10:255 -1:255 27 0] [0x2 4 4 [4 0] [0 10]] (REQUEST)
r 12.520878691 _12_ RTR  --- 0 AODV 48 [0 ffffffff a 800] ------- [10:255 -1:255 27 0] [0x2 4 4 [4 0] [0 10]] (REQUEST)
r 12.520878864 _11_ RTR  --- 0 AODV 48 [0 ffffffff a 800] ------- [10:255 -1:255 27 0] [0x2 4 4 [4 0] [0 10]] (REQUEST)
r 12.520878967 _17_ RTR  --- 0 AODV 48 [0 ffffffff a 800] ------- [10:255 -1:255 27 0] [0x2 4 4 [4 0] [0 10]] (REQUEST)
r 12.520879163 _19_ RTR  --- 0 AODV 48 [0 ffffffff a 800] ------- [10:255 -1:255 27 0] [0x2 4 4 [4 0] [0 10]] (REQUEST)
r 12.520879167 _5_ RTR  --- 0 AODV 48 [0 ffffffff a 800] ------- [10:255 -1:255 27 0] [0x2 4 4 [4 0] [0 10]] (REQUEST)
s 12.523480832 _13_ RTR  --- 0 AODV 48 [0 ffffffff 5 800] ------- [13:255 -1:255 25 0] [0x2 6 4 [4 0] [0 10]] (REQUEST)
r 12.524868976 _1_ RTR  --- 0 AODV 48 [0 ffffffff d 800] ------- [13:255 -1:255 25 0] [0x2 6 4 [4 0] [0 10]] (REQUEST)
r 12.524869168 _7_ RTR  --- 0 AODV 48 [0 ffffffff d 800] ------- [13:255 -1:255 25 0] [0x2 6 4 [4 0] [0 10]] (REQUEST)
r 12.524869376 _18_ RTR  --- 0 AODV 48 [0 ffffffff d 800] ------- [13:255 -1:255 25 0] [0x2 6 4 [4 0] [0 10]] (REQUEST)
r 12.524869417 _21_ RTR  --- 0 AODV 48 [0 ffffffff d 800] ------- [13:255 -1:255 25 0] [0x2 6 4 [4 0] [0 10]] (REQUEST)
r 12.524869469 _5_ RTR  --- 0 AODV 48 [0 ffffffff d 800] ------- [13:255 -1:255 25 0] [0x2 6 4 [4 0] [0 10]] (REQUEST)
r 12.524869471 _8_ RTR  --- 0 AODV 48 [0 ffffffff d 800] ------- [13:255 -1:255 25 0] [0x2 6 4 [4 0] [0 10]] (REQUEST)
r 12.524869487 _23_ RTR  --- 0 AODV 48 [0 ffffffff d 800] ------- [13:255 -1:255 25 0] [0x2 6 4 [4 0] [0 10]] (REQUEST)
r 12.524869602 _4_ RTR  --- 0 AODV 48 [0 ffffffff d 800] ------- [13:255 -1:255 25 0] [0x2 6 4 [4 0] [0 10]] (REQUEST)
s 12.524869602 _4_ RTR  --- 0 AODV 44 [0 0 0 0] ------- [4:255 0:255 30 13] [0x4 1 [4 4] 10.000000] (REPLY)
s 12.526369260 _18_ RTR  --- 0 AODV 48 [0 ffffffff d 800] ------- [18:255 -1:255 24 0] [0x2 7 4 [4 0] [0 10]] (REQUEST)
s 12.526670086 _1_ RTR  --- 0 AODV 48 [0 ffffffff 13 800] ------- [1:255 -1:255 26 0] [0x2 5 4 [4 0] [0 10]] (REQUEST)
s 12.528605526 _23_ RTR  --- 0 AODV 48 [0 ffffffff d 800] ------- [23:255 -1:255 24 0] [0x2 7 4 [4 0] [0 10]] (REQUEST)
s 12.528933192 _21_ RTR  --- 0 AODV 48 [0 ffffffff d 800] ------- [21:255 -1:255 24 0] [0x2 7 4 [4 0] [0 10]] (REQUEST)
r 12.529717991 _13_ RTR  --- 0 AODV 44 [13a d 4 800] ------- [4:255 0:255 30 13] [0x4 1 [4 4] 10.000000] (REPLY)
f 12.529717991 _13_ RTR  --- 0 AODV 44 [13a d 4 800] ------- [4:255 0:255 29 5] [0x4 2 [4 4] 10.000000] (REPLY)
s 12.530330701 _8_ RTR  --- 0 AODV 48 [0 ffffffff d 800] ------- [8:255 -1:255 24 0] [0x2 7 4 [4 0] [0 10]] (REQUEST)
r 12.531090870 _7_ RTR  --- 0 AODV 48 [0 ffffffff 15 800] ------- [21:255 -1:255 24 0] [0x2 7 4 [4 0] [0 10]] (REQUEST)
r 12.531090899 _4_ RTR  --- 0 AODV 48 [0 ffffffff 15 800] ------- [21:255 -1:255 24 0] [0x2 7 4 [4 0] [0 10]] (REQUEST)
r 12.531091025 _1_ RTR  --- 0 AODV 48 [0 ffffffff 15 800] ------- [21:255 -1:255 24 0] [0x2 7 4 [4 0] [0 10]] (REQUEST)
r 12.531091075 _15_ RTR  --- 0 AODV 48 [0 ffffffff 15 800] ------- [21:255 -1:255 24 0] [0x2 7 4 [4 0] [0 10]] (REQUEST)
r 12.531091160 _13_ RTR  --- 0 AODV 48 [0 ffffffff 15 800] ------- [21:255 -1:255 24 0] [0x2 7 4 [4 0] [0 10]] (REQUEST)
r 12.531091260 _2_ RTR  --- 0 AODV 48 [0 ffffffff 15 800] ------- [21:255 -1:255 24 0] [0x2 7 4 [4 0] [0 10]] (REQUEST)
r 12.531091403 _9_ RTR  --- 0 AODV 48 [0 ffffffff 15 800] ------- [21:255 -1:255 24 0] [0x2 7 4 [4 0] [0 10]] (REQUEST)
s 12.531504427 _7_ RTR  --- 0 AODV 48 [0 ffffffff d 800] ------- [7:255 -1:255 24 0] [0x2 7 4 [4 0] [0 10]] (REQUEST)
s 12.532803593 _9_ RTR  --- 0 AODV 48 [0 ffffffff 15 800] ------- [9:255 -1:255 23 0] [0x2 8 4 [4 0] [0 10]] (REQUEST)
r 12.532947930 _18_ RTR  --- 0 AODV 48 [0 ffffffff 8 800] ------- [8:255 -1:255 24 0] [0x2 7 4 [4 0] [0 10]] (REQUEST)
r 12.532947967 _23_ RTR  --- 0 AODV 48 [0 ffffffff 8 800] ------- [8:255 -1:255 24 0] [0x2 7 4 [4 0] [0 10]] (REQUEST)
r 12.532948437 _13_ RTR  --- 0 AODV 48 [0 ffffffff 8 800] ------- [8:255 -1:255 24 0] [0x2 7 4 [4 0] [0 10]] (REQUEST)
r 12.532948559 _1_ RTR  --- 0 AODV 48 [0 ffffffff 8 800] ------- [8:255 -1:255 24 0] [0x2 7 4 [4 0] [0 10]] (REQUEST)
r 12.532948599 _7_ RTR  --- 0 AODV 48 [0 ffffffff 8 800] ------- [8:255 -1:255 24 0] [0x2 7 4 [4 0] [0 10]] (REQUEST)
r 12.533866095 _18_ RTR  --- 0 AODV 48 [0 ffffffff 17 800] ------- [23:255 -1:255 24 0] [0x2 7 4 [4 0] [0 10]] (REQUEST)
r 12.533866135 _8_ RTR  --- 0 AODV 48 [0 ffffffff 17 800] ------- [23:255 -1:255 24 0] [0x2 7 4 [4 0] [0 10]] (REQUEST)
r 12.533866621 _13_ RTR  --- 0 AODV 48 [0 ffffffff 17 800] ------- [23:255 -1:255 24 0] [0x2 7 4 [4 0] [0 10]] (REQUEST)
r 12.533866710 _7_ RTR  --- 0 AODV 48 [0 ffffffff 17 800] ------- [23:255 -1:255 24 0] [0x2 7 4 [4 0] [0 10]] (REQUEST)
r 12.533866721 _1_ RTR  --- 0 AODV 48 [0 ffffffff 17 800] ------- [23:255 -1:255 24 0] [0x2 7 4 [4 0] [0 10]] (REQUEST)
r 12.534784865 _13_ RTR  --- 0 AODV 48 [0 ffffffff 1 800] ------- [1:255 -1:255 26 0] [0x2 5 4 [4 0] [0 10]] (REQUEST)
r 12.534784961 _7_ RTR  --- 0 AODV 48 [0 ffffffff 1 800] ------- [1:255 -1:255 26 0] [0x2 5 4 [4 0] [0 10]] (REQUEST)
r 12.534785171 _21_ RTR  --- 0 AODV 48 [0 ffffffff 1 800] ------- [1:255 -1:255 26 0] [0x2 5 4 [4 0] [0 10]] (REQUEST)
r 12.534785375 _18_ RTR  --- 0 AODV 48 [0 ffffffff 1 800] ------- [1:255 -1:255 26 0] [0x2 5 4 [4 0] [0 10]] (REQUEST)
r 12.534785380 _5_ RTR  --- 0 AODV 48 [0 ffffffff 1 800] ------- [1:255 -1:255 26 0] [0x2 5 4 [4 0] [0 10]] (REQUEST)
r 12.534785389 _4_ RTR  --- 0 AODV 48 [0 ffffffff 1 800] ------- [1:255 -1:255 26 0] [0x2 5 4 [4 0] [0 10]] (REQUEST)
r 12.534785476 _23_ RTR  --- 0 AODV 48 [0 ffffffff 1 800] ------- [1:255 -1:255 26 0] [0x2 5 4 [4 0] [0 10]] (REQUEST)
r 12.534785482 _8_ RTR  --- 0 AODV 48 [0 ffffffff 1 800] ------- [1:255 -1:255 26 0] [0x2 5 4 [4 0] [0 10]] (REQUEST)
r 12.534785498 _19_ RTR  --- 0 AODV 48 [0 ffffffff 1 800] ------- [1:255 -1:255 26 0] [0x2 5 4 [4 0] [0 10]] (REQUEST)
r 12.535703504 _23_ RTR  --- 0 AODV 48 [0 ffffffff 12 800] ------- [18:255 -1:255 24 0] [0x2 7 4 [4 0] [0 10]] (REQUEST)
r 12.535703507 _8_ RTR  --- 0 AODV 48 [0 ffffffff 12 800] ------- [18:255 -1:255 24 0] [0x2 7 4 [4 0] [0 10]] (REQUEST)
r 12.535703918 _13_ RTR  --- 0 AODV 48 [0 ffffffff 12 800] ------- [18:255 -1:255 24 0] [0x2 7 4 [4 0] [0 10]] (REQUEST)
r 12.535704029 _1_ RTR  --- 0 AODV 48 [0 ffffffff 12 800] ------- [18:255 -1:255 24 0] [0x2 7 4 [4 0] [0 10]] (REQUEST)
r 12.535704050 _7_ RTR  --- 0 AODV 48 [0 ffffffff 12 800] ------- [18:255 -1:255 24 0] [0x2 7 4 [4 0] [0 10]] (REQUEST)
r 12.536987163 _15_ RTR  --- 0 AODV 48 [0 ffffffff 9 800] ------- [9:255 -1:255 23 0] [0x2 8 4 [4 0] [0 10]] (REQUEST)
r 12.536987232 _2_ RTR  --- 0 AODV 48 [0 ffffffff 9 800] ------- [9:255 -1:255 23 0] [0x2 8 4 [4 0] [0 10]] (REQUEST)
r 12.536987340 _4_ RTR  --- 0 AODV 48 [0 ffffffff 9 800] ------- [9:255 -1:255 23 0] [0x2 8 4 [4 0] [0 10]] (REQUEST)
r 12.536987627 _21_ RTR  --- 0 AODV 48 [0 ffffffff 9 800] ------- [9:255 -1:255 23 0] [0x2 8 4 [4 0] [0 10]] (REQUEST)
r 12.538310012 _1_ RTR  --- 0 AODV 48 [0 ffffffff 7 800] ------- [7:255 -1:255 24 0] [0x2 7 4 [4 0] [0 10]] (REQUEST)
r 12.538310067 _21_ RTR  --- 0 AODV 48 [0 ffffffff 7 800] ------- [7:255 -1:255 24 0] [0x2 7 4 [4 0] [0 10]] (REQUEST)
r 12.538310108 _13_ RTR  --- 0 AODV 48 [0 ffffffff 7 800] ------- [7:255 -1:255 24 0] [0x2 7 4 [4 0] [0 10]] (REQUEST)
r 12.538310207 _4_ RTR  --- 0 AODV 48 [0 ffffffff 7 800] ------- [7:255 -1:255 24 0] [0x2 7 4 [4 0] [0 10]] (REQUEST)
r 12.538310447 _18_ RTR  --- 0 AODV 48 [0 ffffffff 7 800] ------- [7:255 -1:255 24 0] [0x2 7 4 [4 0] [0 10]] (REQUEST)
r 12.538310467 _2_ RTR  --- 0 AODV 48 [0 ffffffff 7 800] ------- [7:255 -1:255 24 0] [0x2 7 4 [4 0] [0 10]] (REQUEST)
r 12.538310484 _15_ RTR  --- 0 AODV 48 [0 ffffffff 7 800] ------- [7:255 -1:255 24 0] [0x2 7 4 [4 0] [0 10]] (REQUEST)
r 12.538310515 _23_ RTR  --- 0 AODV 48 [0 ffffffff 7 800] ------- [7:255 -1:255 24 0] [0x2 7 4 [4 0] [0 10]] (REQUEST)
r 12.538310573 _8_ RTR  --- 0 AODV 48 [0 ffffffff 7 800] ------- [7:255 -1:255 24 0] [0x2 7 4 [4 0] [0 10]] (REQUEST)
s 12.539149579 _2_ RTR  --- 0 AODV 48 [0 ffffffff 15 800] ------- [2:255 -1:255 23 0] [0x2 8 4 [4 0] [0 10]] (REQUEST)
s 12.539891032 _15_ RTR  --- 0 AODV 48 [0 ffffffff 15 800] ------- [15:255 -1:255 23 0] [0x2 8 4 [4 0] [0 10]] (REQUEST)
r 12.542028489 _5_ RTR  --- 0 AODV 44 [13a 5 d 800] ------- [4:255 0:255 29 5] [0x4 2 [4 4] 10.000000] (REPLY)
f 12.542028489 _5_ RTR  --- 0 AODV 44 [13a 5 d 800] ------- [4:255 0:255 28 14] [0x4 3 [4 4] 10.000000] (REPLY)
r 12.544404293 _4_ RTR  --- 0 AODV 48 [0 ffffffff f 800] ------- [15:255 -1:255 23 0] [0x2 8 4 [4 0] [0 10]] (REQUEST)
r 12.544404352 _9_ RTR  --- 0 AODV 48 [0 ffffffff f 800] ------- [15:255 -1:255 23 0] [0x2 8 4 [4 0] [0 10]] (REQUEST)
r 12.544404478 _2_ RTR  --- 0 AODV 48 [0 ffffffff f 800] ------- [15:255 -1:255 23 0] [0x2 8 4 [4 0] [0 10]] (REQUEST)
r 12.544404489 _21_ RTR  --- 0 AODV 48 [0 ffffffff f 800] ------- [15:255 -1:255 23 0] [0x2 8 4 [4 0] [0 10]] (REQUEST)
r 12.544404700 _7_ RTR  --- 0 AODV 48 [0 ffffffff f 800] ------- [15:255 -1:255 23 0] [0x2 8 4 [4 0] [0 10]] (REQUEST)
r 12.545702847 _4_ RTR  --- 0 AODV 48 [0 ffffffff 2 800] ------- [2:255 -1:255 23 0] [0x2 8 4 [4 0] [0 10]] (REQUEST)
r 12.545702910 _9_ RTR  --- 0 AODV 48 [0 ffffffff 2 800] ------- [2:255 -1:255 23 0] [0x2 8 4 [4 0] [0 10]] (REQUEST)
r 12.545702967 _15_ RTR  --- 0 AODV 48 [0 ffffffff 2 800] ------- [2:255 -1:255 23 0] [0x2 8 4 [4 0] [0 10]] (REQUEST)
r 12.551120658 _14_ RTR  --- 0 AODV 44 [13a e 5 800] ------- [4:255 0:255 28 14] [0x4 3 [4 4] 10.000000] (REPLY)
f 12.551120658 _14_ RTR  --- 0 AODV 44 [13a e 5 800] ------- [4:255 0:255 27 12] [0x4 4 [4 4] 10.000000] (REPLY)
r 12.556231471 _12_ RTR  --- 0 AODV 44 [13a c e 800] ------- [4:255 0:255 27 12] [0x4 4 [4 4] 10.000000] (REPLY)
f 12.556231471 _12_ RTR  --- 0 AODV 44 [13a c e 800] ------- [4:255 0:255 26 16] [0x4 5 [4 4] 10.000000] (REPLY)
r 12.561803609 _16_ RTR  --- 0 AODV 44 [13a 10 c 800] ------- [4:255 0:255 26 16] [0x4 5 [4 4] 10.000000] (REPLY)
f 12.561803609 _16_ RTR  --- 0 AODV 44 [13a 10 c 800] ------- [4:255 0:255 25 0] [0x4 6 [4 4] 10.000000] (REPLY)
r 12.567116385 _0_ RTR  --- 0 AODV 44 [13a 0 10 800] ------- [4:255 0:255 25 0] [0x4 6 [4 4] 10.000000] (REPLY)
s 12.567116385 _0_ RTR  --- 0 tcp 40 [0 0 0 0] ------- [0:0 4:0 30 16] [0 0] 0 0
r 12.569122861 _16_ RTR  --- 0 tcp 40 [13a 10 0 800] ------- [0:0 4:0 30 16] [0 0] 1 0
f 12.569122861 _16_ RTR  --- 0 tcp 40 [13a 10 0 800] ------- [0:0 4:0 29 12] [0 0] 1 0
r 12.571329063 _12_ RTR  --- 0 tcp 40 [13a c 10 800] ------- [0:0 4:0 29 12] [0 0] 2 0
f 12.571329063 _12_ RTR  --- 0 tcp 40 [13a c 10 800] ------- [0:0 4:0 28 14] [0 0] 2 0
r 12.573394697 _14_ RTR  --- 0 tcp 40 [13a e c 800] ------- [0:0 4:0 28 14] [0 0] 3 0
f 12.573394697 _14_ RTR  --- 0 tcp 40 [13a e c 800] ------- [0:0 4:0 27 5] [0 0] 3 0
r 12.575340911 _5_ RTR  --- 0 tcp 40 [13a 5 e 800] ------- [0:0 4:0 27 5] [0 0] 4 0
f 12.575340911 _5_ RTR  --- 0 tcp 40 [13a 5 e 800] ------- [0:0 4:0 26 13] [0 0] 4 0
s 12.577116385 _0_ RTR  --- 1 tcp 40 [0 0 0 0] ------- [0:0 4:0 30 16] [0 0] 0 0
r 12.577326827 _13_ RTR  --- 0 tcp 40 [13a d 5 800] ------- [0:0 4:0 26 13] [0 0] 5 0
f 12.577326827 _13_ RTR  --- 0 tcp 40 [13a d 5 800] ------- [0:0 4:0 25 4] [0 0] 5 0
r 12.579344305 _16_ RTR  --- 1 tcp 40 [13a 10 0 800] ------- [0:0 4:0 30 16] [0 0] 1 0
f 12.579344305 _16_ RTR  --- 1 tcp 40 [13a 10 0 800] ------- [0:0 4:0 29 12] [0 0] 1 0
r 12.579753131 _4_ AGT  --- 0 tcp 40 [13a 4 d 800] ------- [0:0 4:0 25 4] [0 0] 6 0
s 12.579753131 _4_ AGT  --- 3 ack 40 [0 0 0 0] ------- [4:0 0:0 32 0] [0 0] 0 0
r 12.579753131 _4_ RTR  --- 3 ack 40 [0 0 0 0] ------- [4:0 0:0 32 0] [0 0] 0 0
s 12.579753131 _4_ RTR  --- 3 ack 40 [0 0 0 0] ------- [4:0 0:0 30 13] [0 0] 0 0
r 12.581619434 _13_ RTR  --- 3 ack 40 [13a d 4 800] ------- [4:0 0:0 30 13] [0 0] 1 0
f 12.581619434 _13_ RTR  --- 3 ack 40 [13a d 4 800] ------- [4:0 0:0 29 5] [0 0] 1 0
s 12.587116385 _0_ RTR  --- 2 tcp 40 [0 0 0 0] ------- [0:0 4:0 30 16] [0 0] 0 0
r 12.587165352 _5_ RTR  --- 3 ack 40 [13a 5 d 800] ------- [4:0 0:0 29 5] [0 0] 2 0
f 12.587165352 _5_ RTR  --- 3 ack 40 [13a 5 d 800] ------- [4:0 0:0 28 14] [0 0] 2 0
r 12.589471564 _14_ RTR  --- 3 ack 40 [13a e 5 800] ------- [4:0 0:0 28 14] [0 0] 3 0
f 12.589471564 _14_ RTR  --- 3 ack 40 [13a e 5 800] ------- [4:0 0:0 27 12] [0 0] 3 0
r 12.591817198 _12_ RTR  --- 3 ack 40 [13a c e 800] ------- [4:0 0:0 27 12] [0 0] 4 0
f 12.591817198 _12_ RTR  --- 3 ack 40 [13a c e 800] ------- [4:0 0:0 26 16] [0 0] 4 0
r 12.593723401 _16_ RTR  --- 3 ack 40 [13a 10 c 800] ------- [4:0 0:0 26 16] [0 0] 5 0
f 12.593723401 _16_ RTR  --- 3 ack 40 [13a 10 c 800] ------- [4:0 0:0 25 0] [0 0] 5 0
r 12.595680160 _16_ RTR  --- 2 tcp 40 [13a 10 0 800] ------- [0:0 4:0 30 16] [0 0] 1 0
f 12.595680160 _16_ RTR  --- 2 tcp 40 [13a 10 0 800] ------- [0:0 4:0 29 12] [0 0] 1 0
r 12.598726363 _12_ RTR  --- 1 tcp 40 [13a c 10 800] ------- [0:0 4:0 29 12] [0 0] 2 0
f 12.598726363 _12_ RTR  --- 1 tcp 40 [13a c 10 800] ------- [0:0 4:0 28 14] [0 0] 2 0
r 12.600871997 _14_ RTR  --- 1 tcp 40 [13a e c 800] ------- [0:0 4:0 28 14] [0 0] 3 0
f 12.600871997 _14_ RTR  --- 1 tcp 40 [13a e c 800] ------- [0:0 4:0 27 5] [0 0] 3 0
r 12.602758208 _5_ RTR  --- 1 tcp 40 [13a 5 e 800] ------- [0:0 4:0 27 5] [0 0] 4 0
f 12.602758208 _5_ RTR  --- 1 tcp 40 [13a 5 e 800] ------- [0:0 4:0 26 13] [0 0] 4 0
r 12.604984128 _13_ RTR  --- 1 tcp 40 [13a d 5 800] ------- [0:0 4:0 26 13] [0 0] 5 0
f 12.604984128 _13_ RTR  --- 1 tcp 40 [13a d 5 800] ------- [0:0 4:0 25 4] [0 0] 5 0
r 12.606901573 _0_ AGT  --- 3 ack 40 [13a 0 10 800] ------- [4:0 0:0 25 0] [0 0] 6 0
s 12.606901573 _0_ AGT  --- 4 tcp 1540 [0 0 0 0] ------- [0:0 4:0 32 0] [1 0] 0 0
r 12.606901573 _0_ RTR  --- 4 tcp 1540 [0 0 0 0] ------- [0:0 4:0 32 0] [1 0] 0 0
s 12.606901573 _0_ RTR  --- 4 tcp 1540 [0 0 0 0] ------- [0:0 4:0 30 16] [1 0] 0 0
r 12.607270429 _4_ AGT  --- 1 tcp 40 [13a 4 d 800] ------- [0:0 4:0 25 4] [0 0] 6 0
s 12.607270429 _4_ AGT  --- 5 ack 40 [0 0 0 0] ------- [4:0 0:0 32 0] [0 0] 0 0
r 12.607270429 _4_ RTR  --- 5 ack 40 [0 0 0 0] ------- [4:0 0:0 32 0] [0 0] 0 0
s 12.607270429 _4_ RTR  --- 5 ack 40 [0 0 0 0] ------- [4:0 0:0 30 13] [0 0] 0 0