n -t * -s 0  -x 752 -y 744 -Z 0 -z 25  -v circle -c black
n -t * -s 1  -x 670 -y 577 -Z 0 -z 25  -v circle -c black
n -t * -s 2  -x 791 -y 358 -Z 0 -z 25  -v circle -c black
n -t * -s 3  -x 855 -y 747 -Z 0 -z 25  -v circle -c black
n -t * -s 4  -x 637 -y 408 -Z 0 -z 25  -v circle -c black
n -t * -s 5  -x 522 -y 632 -Z 0 -z 25  -v circle -c black
n -t * -s 6  -x 610 -y 88 -Z 0 -z 25  -v circle -c black
n -t * -s 7  -x 965 -y 525 -Z 0 -z 25  -v circle -c black
n -t * -s 8  -x 754 -y 432 -Z 0 -z 25  -v circle -c black
n -t * -s 9  -x 803 -y 179 -Z 0 -z 25  -v circle -c black
n -t * -s 10  -x 566 -y 584 -Z 0 -z 25  -v circle -c black
n -t * -s 11  -x 213 -y 337 -Z 0 -z 25  -v circle -c black
n -t * -s 12  -x 202 -y 573 -Z 0 -z 25  -v circle -c black
n -t * -s 13  -x 237 -y 762 -Z 0 -z 25  -v circle -c black
n -t * -s 14  -x 36 -y 500 -Z 0 -z 25  -v circle -c black
V -t * -v 1.0a5 -a 0
W -t * -x 1000 -y 1000
A -t * -n 1 -p 0 -o 0x7fffffff -c 30 -a 1
A -t * -h 1 -m 1073741823 -s 0
+ -t 0.010000000 -s 0 -d -1 -p tcp -e 40 -c 2 -a 0 -i 0 -k AGT 
- -t 0.010000000 -s 0 -d -1 -p tcp -e 40 -c 2 -a 0 -i 0 -k AGT
h -t 0.010000000 -s 0 -d -1 -p tcp -e 40 -c 2 -a 0 -i 0 -k AGT
+ -t 0.010000000 -s 0 -d -1 -p AODV -e 48 -c 2 -a 0 -i 0 -k RTR 
- -t 0.010000000 -s 0 -d -1 -p AODV -e 48 -c 2 -a 0 -i 0 -k RTR
h -t 0.010000000 -s 0 -d -1 -p AODV -e 48 -c 2 -a 0 -i 0 -k RTR
r -t 0.010988343 -s 3 -d -1 -p AODV -e 48 -c 2 -a 0 -i 0 -k RTR
r -t 0.010988620 -s 1 -d -1 -p AODV -e 48 -c 2 -a 0 -i 0 -k RTR
r -t 0.010988818 -s 10 -d -1 -p AODV -e 48 -c 2 -a 0 -i 0 -k RTR
+ -t 0.011869570 -s 3 -d -1 -p AODV -e 48 -c 2 -a 0 -i 0 -k RTR 
- -t 0.011869570 -s 3 -d -1 -p AODV -e 48 -c 2 -a 0 -i 0 -k RTR
h -t 0.011869570 -s 3 -d -1 -p AODV -e 48 -c 2 -a 0 -i 0 -k RTR
r -t 0.012977914 -s 0 -d -1 -p AODV -e 48 -c 2 -a 0 -i 0 -k RTR
r -t 0.012978396 -s 7 -d -1 -p AODV -e 48 -c 2 -a 0 -i 0 -k RTR
+ -t 0.015324414 -s 7 -d -1 -p AODV -e 48 -c 2 -a 0 -i 0 -k RTR 
- -t 0.015324414 -s 7 -d -1 -p AODV -e 48 -c 2 -a 0 -i 0 -k RTR
h -t 0.015324414 -s 7 -d -1 -p AODV -e 48 -c 2 -a 0 -i 0 -k RTR
+ -t 0.015400354 -s 1 -d -1 -p AODV -e 48 -c 2 -a 0 -i 0 -k RTR 
- -t 0.015400354 -s 1 -d -1 -p AODV -e 48 -c 2 -a 0 -i 0 -k RTR
h -t 0.015400354 -s 1 -d -1 -p AODV -e 48 -c 2 -a 0 -i 0 -k RTR
r -t 0.016608701 -s 10 -d -1 -p AODV -e 48 -c 2 -a 0 -i 0 -k RTR
r -t 0.016608880 -s 5 -d -1 -p AODV -e 48 -c 2 -a 0 -i 0 -k RTR
r -t 0.016608913 -s 8 -d -1 -p AODV -e 48 -c 2 -a 0 -i 0 -k RTR
r -t 0.016608928 -s 4 -d -1 -p AODV -e 48 -c 2 -a 0 -i 0 -k RTR
+ -t 0.016608928 -s 4 -d 1 -p AODV -e 44 -c 2 -a 0 -i 0 -k RTR 
- -t 0.016608928 -s 4 -d 1 -p AODV -e 44 -c 2 -a 0 -i 0 -k RTR
h -t 0.016608928 -s 4 -d 1 -p AODV -e 44 -c 2 -a 0 -i 0 -k RTR
r -t 0.016608974 -s 0 -d -1 -p AODV -e 48 -c 2 -a 0 -i 0 -k RTR
+ -t 0.017036858 -s 8 -d -1 -p AODV -e 48 -c 2 -a 0 -i 0 -k RTR 
- -t 0.017036858 -s 8 -d -1 -p AODV -e 48 -c 2 -a 0 -i 0 -k RTR
h -t 0.017036858 -s 8 -d -1 -p AODV -e 48 -c 2 -a 0 -i 0 -k RTR
+ -t 0.018250334 -s 5 -d -1 -p AODV -e 48 -c 2 -a 0 -i 0 -k RTR 
- -t 0.018250334 -s 5 -d -1 -p AODV -e 48 -c 2 -a 0 -i 0 -k RTR
h -t 0.018250334 -s 5 -d -1 -p AODV -e 48 -c 2 -a 0 -i 0 -k RTR
+ -t 0.018980372 -s 10 -d -1 -p AODV -e 48 -c 2 -a 0 -i 0 -k RTR 
- -t 0.018980372 -s 10 -d -1 -p AODV -e 48 -c 2 -a 0 -i 0 -k RTR
h -t 0.018980372 -s 10 -d -1 -p AODV -e 48 -c 2 -a 0 -i 0 -k RTR
+ -t 0.021050946 -s 1 -d 0 -p AODV -e 44 -c 2 -a 0 -i 0 -k RTR 
- -t 0.021050946 -s 1 -d 0 -p AODV -e 44 -c 2 -a 0 -i 0 -k RTR
h -t 0.021050946 -s 1 -d 0 -p AODV -e 44 -c 2 -a 0 -i 0 -k RTR
r -t 0.022403780 -s 2 -d -1 -p AODV -e 48 -c 2 -a 0 -i 0 -k RTR
r -t 0.022403902 -s 4 -d -1 -p AODV -e 48 -c 2 -a 0 -i 0 -k RTR
r -t 0.022404063 -s 1 -d -1 -p AODV -e 48 -c 2 -a 0 -i 0 -k RTR
r -t 0.022404273 -s 7 -d -1 -p AODV -e 48 -c 2 -a 0 -i 0 -k RTR
r -t 0.022404310 -s 10 -d -1 -p AODV -e 48 -c 2 -a 0 -i 0 -k RTR
r -t 0.024686009 -s 10 -d -1 -p AODV -e 48 -c 2 -a 0 -i 0 -k RTR
r -t 0.024686318 -s 1 -d -1 -p AODV -e 48 -c 2 -a 0 -i 0 -k RTR
+ -t 0.024984660 -s 2 -d -1 -p AODV -e 48 -c 2 -a 0 -i 0 -k RTR 
- -t 0.024984660 -s 2 -d -1 -p AODV -e 48 -c 2 -a 0 -i 0 -k RTR
h -t 0.024984660 -s 2 -d -1 -p AODV -e 48 -c 2 -a 0 -i 0 -k RTR
r -t 0.025644226 -s 5 -d -1 -p AODV -e 48 -c 2 -a 0 -i 0 -k RTR
r -t 0.025644357 -s 1 -d -1 -p AODV -e 48 -c 2 -a 0 -i 0 -k RTR
r -t 0.025644642 -s 4 -d -1 -p AODV -e 48 -c 2 -a 0 -i 0 -k RTR
r -t 0.025644815 -s 8 -d -1 -p AODV -e 48 -c 2 -a 0 -i 0 -k RTR
r -t 0.025644827 -s 0 -d -1 -p AODV -e 48 -c 2 -a 0 -i 0 -k RTR
r -t 0.027087348 -s 8 -d -1 -p AODV -e 48 -c 2 -a 0 -i 0 -k RTR
r -t 0.027087612 -s 4 -d -1 -p AODV -e 48 -c 2 -a 0 -i 0 -k RTR
r -t 0.027087670 -s 9 -d -1 -p AODV -e 48 -c 2 -a 0 -i 0 -k RTR
r -t 0.027087876 -s 7 -d -1 -p AODV -e 48 -c 2 -a 0 -i 0 -k RTR
+ -t 0.029259265 -s 9 -d -1 -p AODV -e 48 -c 2 -a 0 -i 0 -k RTR 
- -t 0.029259265 -s 9 -d -1 -p AODV -e 48 -c 2 -a 0 -i 0 -k RTR
h -t 0.029259265 -s 9 -d -1 -p AODV -e 48 -c 2 -a 0 -i 0 -k RTR
r -t 0.030567863 -s 2 -d -1 -p AODV -e 48 -c 2 -a 0 -i 0 -k RTR
r -t 0.030567976 -s 6 -d -1 -p AODV -e 48 -c 2 -a 0 -i 0 -k RTR
+ -t 0.037341465 -s 6 -d -1 -p AODV -e 48 -c 2 -a 0 -i 0 -k RTR 
- -t 0.037341465 -s 6 -d -1 -p AODV -e 48 -c 2 -a 0 -i 0 -k RTR
h -t 0.037341465 -s 6 -d -1 -p AODV -e 48 -c 2 -a 0 -i 0 -k RTR
r -t 0.038650177 -s 9 -d -1 -p AODV -e 48 -c 2 -a 0 -i 0 -k RTR
n -t 1.000000 -s 0 -x 752.000000 -y 744.000000 -U -0.125376 -V -0.992109 -T 733.790161
n -t 1.000000 -s 1 -x 670.000000 -y 577.000000 -U -6.057040 -V 6.656746 -T 16.674813
n -t 1.000000 -s 2 -x 791.000000 -y 358.000000 -U -0.000000 -V -0.000000 -T 0.000000
n -t 1.000000 -s 3 -x 855.000000 -y 747.000000 -U -0.971146 -V 0.238484 -T 406.735786
n -t 1.000000 -s 4 -x 637.000000 -y 408.000000 -U -4.822665 -V 6.382939 -T 84.600532
n -t 1.000000 -s 5 -x 522.000000 -y 632.000000 -U -0.000000 -V -0.000000 -T 0.000000
n -t 1.000000 -s 6 -x 610.000000 -y 88.000000 -U 5.915631 -V -1.002649 -T 59.841457
n -t 1.000000 -s 7 -x 965.000000 -y 525.000000 -U -2.780128 -V 1.127337 -T 314.014331
n -t 1.000000 -s 8 -x 754.000000 -y 432.000000 -U -4.842120 -V 5.055084 -T 89.217117
n -t 1.000000 -s 9 -x 803.000000 -y 179.000000 -U -1.640254 -V 1.144363 -T 471.878162
n -t 1.000000 -s 10 -x 566.000000 -y 584.000000 -U 1.836192 -V -0.792717 -T 123.625442
n -t 1.000000 -s 11 -x 213.000000 -y 337.000000 -U 7.471528 -V 6.646523 -T 86.060037
n -t 1.000000 -s 12 -x 202.000000 -y 573.000000 -U 1.980618 -V -2.253254 -T 249.417098
n -t 1.000000 -s 13 -x 237.000000 -y 762.000000 -U 1.994910 -V 4.584794 -T 28.572714
n -t 1.000000 -s 14 -x 36.000000 -y 500.000000 -U 3.927769 -V 0.756726 -T 138.755631
+ -t 2.000000000 -s 0 -d -1 -p AODV -e 48 -c 2 -a 0 -i 0 -k RTR 
- -t 2.000000000 -s 0 -d -1 -p AODV -e 48 -c 2 -a 0 -i 0 -k RTR
h -t 2.000000000 -s 0 -d -1 -p AODV -e 48 -c 2 -a 0 -i 0 -k RTR
r -t 2.001028341 -s 3 -d -1 -p AODV -e 48 -c 2 -a 0 -i 0 -k RTR
r -t 2.001028607 -s 1 -d -1 -p AODV -e 48 -c 2 -a 0 -i 0 -k RTR
+ -t 2.001028607 -s 1 -d 0 -p AODV -e 44 -c 2 -a 0 -i 0 -k RTR 
- -t 2.001028607 -s 1 -d 0 -p AODV -e 44 -c 2 -a 0 -i 0 -k RTR
h -t 2.001028607 -s 1 -d 0 -p AODV -e 44 -c 2 -a 0 -i 0 -k RTR
d -t 2.001028607 -s 1 -d 0 -p AODV -e 44 -c 2 -a 0 -i 0 -k IFQ
r -t 2.001028812 -s 10 -d -1 -p AODV -e 48 -c 2 -a 0 -i 0 -k RTR
+ -t 2.002902465 -s 10 -d -1 -p AODV -e 48 -c 2 -a 0 -i 0 -k RTR 
- -t 2.002902465 -s 10 -d -1 -p AODV -e 48 -c 2 -a 0 -i 0 -k RTR
h -t 2.002902465 -s 10 -d -1 -p AODV -e 48 -c 2 -a 0 -i 0 -k RTR
+ -t 2.005070416 -s 3 -d -1 -p AODV -e 48 -c 2 -a 0 -i 0 -k RTR 
- -t 2.005070416 -s 3 -d -1 -p AODV -e 48 -c 2 -a 0 -i 0 -k RTR
h -t 2.005070416 -s 3 -d -1 -p AODV -e 48 -c 2 -a 0 -i 0 -k RTR
+ -t 2.005815853 -s 0 -d 1 -p tcp -e 40 -c 2 -a 0 -i 0 -k RTR 
- -t 2.005815853 -s 0 -d 1 -p tcp -e 40 -c 2 -a 0 -i 0 -k RTR
h -t 2.005815853 -s 0 -d 1 -p tcp -e 40 -c 2 -a 0 -i 0 -k RTR
+ -t 2.007701673 -s 1 -d 4 -p tcp -e 40 -c 2 -a 0 -i 0 -k RTR 
- -t 2.007701673 -s 1 -d 4 -p tcp -e 40 -c 2 -a 0 -i 0 -k RTR
h -t 2.007701673 -s 1 -d 4 -p tcp -e 40 -c 2 -a 0 -i 0 -k RTR
r -t 2.009827395 -s 4 -d 4 -p tcp -e 40 -c 2 -a 0 -i 0 -k AGT
+ -t 2.009827395 -s 4 -d -1 -p ack -e 40 -c 2 -a 0 -i 1 -k AGT 
- -t 2.009827395 -s 4 -d -1 -p ack -e 40 -c 2 -a 0 -i 1 -k AGT
h -t 2.009827395 -s 4 -d -1 -p ack -e 40 -c 2 -a 0 -i 1 -k AGT
+ -t 2.009827395 -s 4 -d 1 -p ack -e 40 -c 2 -a 0 -i 1 -k RTR 
- -t 2.009827395 -s 4 -d 1 -p ack -e 40 -c 2 -a 0 -i 1 -k RTR
h -t 2.009827395 -s 4 -d 1 -p ack -e 40 -c 2 -a 0 -i 1 -k RTR
r -t 2.011300220 -s 5 -d -1 -p AODV -e 48 -c 2 -a 0 -i 0 -k RTR
r -t 2.011300317 -s 1 -d -1 -p AODV -e 48 -c 2 -a 0 -i 0 -k RTR
r -t 2.011300599 -s 4 -d -1 -p AODV -e 48 -c 2 -a 0 -i 0 -k RTR
+ -t 2.011300599 -s 4 -d 10 -p AODV -e 44 -c 2 -a 0 -i 0 -k RTR 
- -t 2.011300599 -s 4 -d 10 -p AODV -e 44 -c 2 -a 0 -i 0 -k RTR
h -t 2.011300599 -s 4 -d 10 -p AODV -e 44 -c 2 -a 0 -i 0 -k RTR
r -t 2.011300773 -s 8 -d -1 -p AODV -e 48 -c 2 -a 0 -i 0 -k RTR
r -t 2.011300809 -s 0 -d -1 -p AODV -e 48 -c 2 -a 0 -i 0 -k RTR
+ -t 2.012832321 -s 1 -d 0 -p ack -e 40 -c 2 -a 0 -i 1 -k RTR 
- -t 2.012832321 -s 1 -d 0 -p ack -e 40 -c 2 -a 0 -i 1 -k RTR
h -t 2.012832321 -s 1 -d 0 -p ack -e 40 -c 2 -a 0 -i 1 -k RTR
r -t 2.014878141 -s 0 -d 0 -p ack -e 40 -c 2 -a 0 -i 1 -k AGT
+ -t 2.014878141 -s 0 -d -1 -p tcp -e 1540 -c 2 -a 0 -i 2 -k AGT 
- -t 2.014878141 -s 0 -d -1 -p tcp -e 1540 -c 2 -a 0 -i 2 -k AGT
h -t 2.014878141 -s 0 -d -1 -p tcp -e 1540 -c 2 -a 0 -i 2 -k AGT
+ -t 2.014878141 -s 0 -d -1 -p tcp -e 1540 -c 2 -a 0 -i 3 -k AGT 
- -t 2.014878141 -s 0 -d -1 -p tcp -e 1540 -c 2 -a 0 -i 3 -k AGT
h -t 2.014878141 -s 0 -d -1 -p tcp -e 1540 -c 2 -a 0 -i 3 -k AGT
+ -t 2.014878141 -s 0 -d 1 -p tcp -e 1540 -c 2 -a 0 -i 2 -k RTR 
- -t 2.014878141 -s 0 -d 1 -p tcp -e 1540 -c 2 -a 0 -i 2 -k RTR
h -t 2.014878141 -s 0 -d 1 -p tcp -e 1540 -c 2 -a 0 -i 2 -k RTR
+ -t 2.014878141 -s 0 -d 1 -p tcp -e 1540 -c 2 -a 0 -i 3 -k RTR 
- -t 2.014878141 -s 0 -d 1 -p tcp -e 1540 -c 2 -a 0 -i 3 -k RTR
h -t 2.014878141 -s 0 -d 1 -p tcp -e 1540 -c 2 -a 0 -i 3 -k RTR
+ -t 2.016748993 -s 8 -d -1 -p AODV -e 48 -c 2 -a 0 -i 0 -k RTR 
- -t 2.016748993 -s 8 -d -1 -p AODV -e 48 -c 2 -a 0 -i 0 -k RTR
h -t 2.016748993 -s 8 -d -1 -p AODV -e 48 -c 2 -a 0 -i 0 -k RTR
+ -t 2.018286953 -s 5 -d -1 -p AODV -e 48 -c 2 -a 0 -i 0 -k RTR 
- -t 2.018286953 -s 5 -d -1 -p AODV -e 48 -c 2 -a 0 -i 0 -k RTR
h -t 2.018286953 -s 5 -d -1 -p AODV -e 48 -c 2 -a 0 -i 0 -k RTR
+ -t 2.028743960 -s 1 -d 4 -p tcp -e 1540 -c 2 -a 0 -i 2 -k RTR 
- -t 2.028743960 -s 1 -d 4 -p tcp -e 1540 -c 2 -a 0 -i 2 -k RTR
h -t 2.028743960 -s 1 -d 4 -p tcp -e 1540 -c 2 -a 0 -i 2 -k RTR
r -t 2.030086428 -s 10 -d -1 -p AODV -e 48 -c 2 -a 0 -i 0 -k RTR
r -t 2.030086704 -s 1 -d -1 -p AODV -e 48 -c 2 -a 0 -i 0 -k RTR
r -t 2.030087017 -s 4 -d -1 -p AODV -e 48 -c 2 -a 0 -i 0 -k RTR
r -t 2.032228691 -s 0 -d -1 -p AODV -e 48 -c 2 -a 0 -i 0 -k RTR
r -t 2.032229170 -s 7 -d -1 -p AODV -e 48 -c 2 -a 0 -i 0 -k RTR
r -t 2.033511740 -s 2 -d -1 -p AODV -e 48 -c 2 -a 0 -i 0 -k RTR
r -t 2.033511838 -s 4 -d -1 -p AODV -e 48 -c 2 -a 0 -i 0 -k RTR
r -t 2.033512007 -s 1 -d -1 -p AODV -e 48 -c 2 -a 0 -i 0 -k RTR
r -t 2.033512211 -s 7 -d -1 -p AODV -e 48 -c 2 -a 0 -i 0 -k RTR
r -t 2.033512216 -s 10 -d -1 -p AODV -e 48 -c 2 -a 0 -i 0 -k RTR
+ -t 2.034296511 -s 7 -d -1 -p AODV -e 48 -c 2 -a 0 -i 0 -k RTR 
- -t 2.034296511 -s 7 -d -1 -p AODV -e 48 -c 2 -a 0 -i 0 -k RTR
h -t 2.034296511 -s 7 -d -1 -p AODV -e 48 -c 2 -a 0 -i 0 -k RTR
+ -t 2.035299018 -s 2 -d -1 -p AODV -e 48 -c 2 -a 0 -i 0 -k RTR 
- -t 2.035299018 -s 2 -d -1 -p AODV -e 48 -c 2 -a 0 -i 0 -k RTR
h -t 2.035299018 -s 2 -d -1 -p AODV -e 48 -c 2 -a 0 -i 0 -k RTR
r -t 2.047323729 -s 4 -d 4 -p tcp -e 1540 -c 2 -a 0 -i 2 -k AGT
+ -t 2.047323729 -s 4 -d -1 -p ack -e 40 -c 2 -a 0 -i 4 -k AGT 
- -t 2.047323729 -s 4 -d -1 -p ack -e 40 -c 2 -a 0 -i 4 -k AGT
h -t 2.047323729 -s 4 -d -1 -p ack -e 40 -c 2 -a 0 -i 4 -k AGT
+ -t 2.047323729 -s 4 -d 10 -p ack -e 40 -c 2 -a 0 -i 4 -k RTR 
- -t 2.047323729 -s 4 -d 10 -p ack -e 40 -c 2 -a 0 -i 4 -k RTR
h -t 2.047323729 -s 4 -d 10 -p ack -e 40 -c 2 -a 0 -i 4 -k RTR
d -t 2.047323729 -s 4 -d 10 -p AODV -e 44 -c 2 -a 0 -i 0 -k IFQ
+ -t 2.051962934 -s 10 -d 0 -p ack -e 40 -c 2 -a 0 -i 4 -k RTR 
- -t 2.051962934 -s 10 -d 0 -p ack -e 40 -c 2 -a 0 -i 4 -k RTR
h -t 2.051962934 -s 10 -d 0 -p ack -e 40 -c 2 -a 0 -i 4 -k RTR
+ -t 2.066019316 -s 1 -d 4 -p tcp -e 1540 -c 2 -a 0 -i 3 -k RTR 
- -t 2.066019316 -s 1 -d 4 -p tcp -e 1540 -c 2 -a 0 -i 3 -k RTR
h -t 2.066019316 -s 1 -d 4 -p tcp -e 1540 -c 2 -a 0 -i 3 -k RTR
r -t 2.080643676 -s 4 -d 4 -p tcp -e 1540 -c 2 -a 0 -i 3 -k AGT
+ -t 2.080643676 -s 4 -d -1 -p ack -e 40 -c 2 -a 0 -i 5 -k AGT 
- -t 2.080643676 -s 4 -d -1 -p ack -e 40 -c 2 -a 0 -i 5 -k AGT
h -t 2.080643676 -s 4 -d -1 -p ack -e 40 -c 2 -a 0 -i 5 -k AGT
+ -t 2.080643676 -s 4 -d 10 -p ack -e 40 -c 2 -a 0 -i 5 -k RTR 
- -t 2.080643676 -s 4 -d 10 -p ack -e 40 -c 2 -a 0 -i 5 -k RTR
h -t 2.080643676 -s 4 -d 10 -p ack -e 40 -c 2 -a 0 -i 5 -k RTR
r -t 2.081966267 -s 8 -d -1 -p AODV -e 48 -c 2 -a 0 -i 0 -k RTR
r -t 2.081966530 -s 4 -d -1 -p AODV -e 48 -c 2 -a 0 -i 0 -k RTR
r -t 2.081966560 -s 9 -d -1 -p AODV -e 48 -c 2 -a 0 -i 0 -k RTR
r -t 2.081966766 -s 7 -d -1 -p AODV -e 48 -c 2 -a 0 -i 0 -k RTR
+ -t 2.083498330 -s 10 -d 0 -p ack -e 40 -c 2 -a 0 -i 5 -k RTR 
- -t 2.083498330 -s 10 -d 0 -p ack -e 40 -c 2 -a 0 -i 5 -k RTR
h -t 2.083498330 -s 10 -d 0 -p ack -e 40 -c 2 -a 0 -i 5 -k RTR
d -t 2.083498330 -s 10 -d 0 -p ack -e 40 -c 2 -a 0 -i 4 -k IFQ
+ -t 2.085527146 -s 9 -d -1 -p AODV -e 48 -c 2 -a 0 -i 0 -k RTR 
- -t 2.085527146 -s 9 -d -1 -p AODV -e 48 -c 2 -a 0 -i 0 -k RTR
h -t 2.085527146 -s 9 -d -1 -p AODV -e 48 -c 2 -a 0 -i 0 -k RTR
r -t 2.088583766 -s 0 -d 0 -p ack -e 40 -c 2 -a 0 -i 5 -k AGT
+ -t 2.088583766 -s 0 -d -1 -p tcp -e 1540 -c 2 -a 0 -i 6 -k AGT 
- -t 2.088583766 -s 0 -d -1 -p tcp -e 1540 -c 2 -a 0 -i 6 -k AGT
h -t 2.088583766 -s 0 -d -1 -p tcp -e 1540 -c 2 -a 0 -i 6 -k AGT
+ -t 2.088583766 -s 0 -d -1 -p tcp -e 1540 -c 2 -a 0 -i 7 -k AGT 
- -t 2.088583766 -s 0 -d -1 -p tcp -e 1540 -c 2 -a 0 -i 7 -k AGT
h -t 2.088583766 -s 0 -d -1 -p tcp -e 1540 -c 2 -a 0 -i 7 -k AGT
+ -t 2.088583766 -s 0 -d -1 -p tcp -e 1540 -c 2 -a 0 -i 8 -k AGT 
- -t 2.088583766 -s 0 -d -1 -p tcp -e 1540 -c 2 -a 0 -i 8 -k AGT
h -t 2.088583766 -s 0 -d -1 -p tcp -e 1540 -c 2 -a 0 -i 8 -k AGT
+ -t 2.088583766 -s 0 -d 1 -p tcp -e 1540 -c 2 -a 0 -i 6 -k RTR 
- -t 2.088583766 -s 0 -d 1 -p tcp -e 1540 -c 2 -a 0 -i 6 -k RTR
h -t 2.088583766 -s 0 -d 1 -p tcp -e 1540 -c 2 -a 0 -i 6 -k RTR
+ -t 2.088583766 -s 0 -d 1 -p tcp -e 1540 -c 2 -a 0 -i 7 -k RTR 
- -t 2.088583766 -s 0 -d 1 -p tcp -e 1540 -c 2 -a 0 -i 7 -k RTR
h -t 2.088583766 -s 0 -d 1 -p tcp -e 1540 -c 2 -a 0 -i 7 -k RTR
+ -t 2.088583766 -s 0 -d 1 -p tcp -e 1540 -c 2 -a 0 -i 8 -k RTR 
- -t 2.088583766 -s 0 -d 1 -p tcp -e 1540 -c 2 -a 0 -i 8 -k RTR
h -t 2.088583766 -s 0 -d 1 -p tcp -e 1540 -c 2 -a 0 -i 8 -k RTR
r -t 2.091018820 -s 6 -d -1 -p AODV -e 48 -c 2 -a 0 -i 0 -k RTR
+ -t 2.094754858 -s 6 -d -1 -p AODV -e 48 -c 2 -a 0 -i 0 -k RTR 
- -t 2.094754858 -s 6 -d -1 -p AODV -e 48 -c 2 -a 0 -i 0 -k RTR
h -t 2.094754858 -s 6 -d -1 -p AODV -e 48 -c 2 -a 0 -i 0 -k RTR
r -t 2.096283548 -s 9 -d -1 -p AODV -e 48 -c 2 -a 0 -i 0 -k RTR
+ -t 2.104560831 -s 1 -d 4 -p tcp -e 1540 -c 2 -a 0 -i 6 -k RTR 
- -t 2.104560831 -s 1 -d 4 -p tcp -e 1540 -c 2 -a 0 -i 6 -k RTR
h -t 2.104560831 -s 1 -d 4 -p tcp -e 1540 -c 2 -a 0 -i 6 -k RTR
+ -t 2.118547252 -s 1 -d 4 -p tcp -e 1540 -c 2 -a 0 -i 7 -k RTR 
- -t 2.118547252 -s 1 -d 4 -p tcp -e 1540 -c 2 -a 0 -i 7 -k RTR
h -t 2.118547252 -s 1 -d 4 -p tcp -e 1540 -c 2 -a 0 -i 7 -k RTR
r -t 2.132392974 -s 4 -d 4 -p tcp -e 1540 -c 2 -a 0 -i 6 -k AGT
+ -t 2.132392974 -s 4 -d -1 -p ack -e 40 -c 2 -a 0 -i 9 -k AGT 
- -t 2.132392974 -s 4 -d -1 -p ack -e 40 -c 2 -a 0 -i 9 -k AGT
h -t 2.132392974 -s 4 -d -1 -p ack -e 40 -c 2 -a 0 -i 9 -k AGT
+ -t 2.132392974 -s 4 -d 10 -p ack -e 40 -c 2 -a 0 -i 9 -k RTR 
- -t 2.132392974 -s 4 -d 10 -p ack -e 40 -c 2 -a 0 -i 9 -k RTR
h -t 2.132392974 -s 4 -d 10 -p ack -e 40 -c 2 -a 0 -i 9 -k RTR
r -t 2.146339271 -s 4 -d 4 -p tcp -e 1540 -c 2 -a 0 -i 7 -k AGT
+ -t 2.146339271 -s 4 -d -1 -p ack -e 40 -c 2 -a 0 -i 10 -k AGT 
- -t 2.146339271 -s 4 -d -1 -p ack -e 40 -c 2 -a 0 -i 10 -k AGT
h -t 2.146339271 -s 4 -d -1 -p ack -e 40 -c 2 -a 0 -i 10 -k AGT
+ -t 2.146339271 -s 4 -d 10 -p ack -e 40 -c 2 -a 0 -i 10 -k RTR 
- -t 2.146339271 -s 4 -d 10 -p ack -e 40 -c 2 -a 0 -i 10 -k RTR
h -t 2.146339271 -s 4 -d 10 -p ack -e 40 -c 2 -a 0 -i 10 -k RTR
+ -t 2.148445064 -s 10 -d 0 -p ack -e 40 -c 2 -a 0 -i 9 -k RTR 
- -t 2.148445064 -s 10 -d 0 -p ack -e 40 -c 2 -a 0 -i 9 -k RTR
h -t 2.148445064 -s 10 -d 0 -p ack -e 40 -c 2 -a 0 -i 9 -k RTR
+ -t 2.150271455 -s 10 -d 0 -p ack -e 40 -c 2 -a 0 -i 10 -k RTR 
- -t 2.150271455 -s 10 -d 0 -p ack -e 40 -c 2 -a 0 -i 10 -k RTR
h -t 2.150271455 -s 10 -d 0 -p ack -e 40 -c 2 -a 0 -i 10 -k RTR
r -t 2.152317890 -s 0 -d 0 -p ack -e 40 -c 2 -a 0 -i 9 -k AGT
+ -t 2.152317890 -s 0 -d -1 -p tcp -e 1540 -c 2 -a 0 -i 11 -k AGT 
- -t 2.152317890 -s 0 -d -1 -p tcp -e 1540 -c 2 -a 0 -i 11 -k AGT
h -t 2.152317890 -s 0 -d -1 -p tcp -e 1540 -c 2 -a 0 -i 11 -k AGT
+ -t 2.152317890 -s 0 -d -1 -p tcp -e 1540 -c 2 -a 0 -i 12 -k AGT 
- -t 2.152317890 -s 0 -d -1 -p tcp -e 1540 -c 2 -a 0 -i 12 -k AGT
h -t 2.152317890 -s 0 -d -1 -p tcp -e 1540 -c 2 -a 0 -i 12 -k AGT
+ -t 2.152317890 -s 0 -d 1 -p tcp -e 1540 -c 2 -a 0 -i 11 -k RTR 
- -t 2.152317890 -s 0 -d 1 -p tcp -e 1540 -c 2 -a 0 -i 11 -k RTR
h -t 2.152317890 -s 0 -d 1 -p tcp -e 1540 -c 2 -a 0 -i 11 -k RTR
+ -t 2.152317890 -s 0 -d 1 -p tcp -e 1540 -c 2 -a 0 -i 12 -k RTR 
- -t 2.152317890 -s 0 -d 1 -p tcp -e 1540 -c 2 -a 0 -i 12 -k RTR
h -t 2.152317890 -s 0 -d 1 -p tcp -e 1540 -c 2 -a 0 -i 12 -k RTR
+ -t 2.166423704 -s 1 -d 4 -p tcp -e 1540 -c 2 -a 0 -i 8 -k RTR 
- -t 2.166423704 -s 1 -d 4 -p tcp -e 1540 -c 2 -a 0 -i 8 -k RTR
h -t 2.166423704 -s 1 -d 4 -p tcp -e 1540 -c 2 -a 0 -i 8 -k RTR
r -t 2.168350455 -s 0 -d 0 -p ack -e 40 -c 2 -a 0 -i 10 -k AGT
+ -t 2.168350455 -s 0 -d -1 -p tcp -e 1540 -c 2 -a 0 -i 13 -k AGT 
- -t 2.168350455 -s 0 -d -1 -p tcp -e 1540 -c 2 -a 0 -i 13 -k AGT
h -t 2.168350455 -s 0 -d -1 -p tcp -e 1540 -c 2 -a 0 -i 13 -k AGT
+ -t 2.168350455 -s 0 -d -1 -p tcp -e 1540 -c 2 -a 0 -i 14 -k AGT 
- -t 2.168350455 -s 0 -d -1 -p tcp -e 1540 -c 2 -a 0 -i 14 -k AGT
h -t 2.168350455 -s 0 -d -1 -p tcp -e 1540 -c 2 -a 0 -i 14 -k AGT
+ -t 2.168350455 -s 0 -d 1 -p tcp -e 1540 -c 2 -a 0 -i 13 -k RTR 
- -t 2.168350455 -s 0 -d 1 -p tcp -e 1540 -c 2 -a 0 -i 13 -k RTR
h -t 2.168350455 -s 0 -d 1 -p tcp -e 1540 -c 2 -a 0 -i 13 -k RTR
+ -t 2.168350455 -s 0 -d 1 -p tcp -e 1540 -c 2 -a 0 -i 14 -k RTR 
- -t 2.168350455 -s 0 -d 1 -p tcp -e 1540 -c 2 -a 0 -i 14 -k RTR
h -t 2.168350455 -s 0 -d 1 -p tcp -e 1540 -c 2 -a 0 -i 14 -k RTR
r -t 2.182396782 -s 4 -d 4 -p tcp -e 1540 -c 2 -a 0 -i 8 -k AGT
+ -t 2.182396782 -s 4 -d -1 -p ack -e 40 -c 2 -a 0 -i 15 -k AGT 
- -t 2.182396782 -s 4 -d -1 -p ack -e 40 -c 2 -a 0 -i 15 -k AGT
h -t 2.182396782 -s 4 -d -1 -p ack -e 40 -c 2 -a 0 -i 15 -k AGT
+ -t 2.182396782 -s 4 -d 10 -p ack -e 40 -c 2 -a 0 -i 15 -k RTR 
- -t 2.182396782 -s 4 -d 10 -p ack -e 40 -c 2 -a 0 -i 15 -k RTR
h -t 2.182396782 -s 4 -d 10 -p ack -e 40 -c 2 -a 0 -i 15 -k RTR
+ -t 2.184542572 -s 10 -d 0 -p ack -e 40 -c 2 -a 0 -i 15 -k RTR 
- -t 2.184542572 -s 10 -d 0 -p ack -e 40 -c 2 -a 0 -i 15 -k RTR
h -t 2.184542572 -s 10 -d 0 -p ack -e 40 -c 2 -a 0 -i 15 -k RTR
r -t 2.186389006 -s 0 -d 0 -p ack -e 40 -c 2 -a 0 -i 15 -k AGT
+ -t 2.186389006 -s 0 -d -1 -p tcp -e 1540 -c 2 -a 0 -i 16 -k AGT 
- -t 2.186389006 -s 0 -d -1 -p tcp -e 1540 -c 2 -a 0 -i 16 -k AGT
h -t 2.186389006 -s 0 -d -1 -p tcp -e 1540 -c 2 -a 0 -i 16 -k AGT
+ -t 2.186389006 -s 0 -d -1 -p tcp -e 1540 -c 2 -a 0 -i 17 -k AGT 
- -t 2.186389006 -s 0 -d -1 -p tcp -e 1540 -c 2 -a 0 -i 17 -k AGT
h -t 2.186389006 -s 0 -d -1 -p tcp -e 1540 -c 2 -a 0 -i 17 -k AGT
+ -t 2.186389006 -s 0 -d 1 -p tcp -e 1540 -c 2 -a 0 -i 16 -k RTR 
- -t 2.186389006 -s 0 -d 1 -p tcp -e 1540 -c 2 -a 0 -i 16 -k RTR
h -t 2.186389006 -s 0 -d 1 -p tcp -e 1540 -c 2 -a 0 -i 16 -k RTR
+ -t 2.186389006 -s 0 -d 1 -p tcp -e 1540 -c 2 -a 0 -i 17 -k RTR 
- -t 2.186389006 -s 0 -d 1 -p tcp -e 1540 -c 2 -a 0 -i 17 -k RTR
h -t 2.186389006 -s 0 -d 1 -p tcp -e 1540 -c 2 -a 0 -i 17 -k RTR
+ -t 2.200314819 -s 1 -d 4 -p tcp -e 1540 -c 2 -a 0 -i 11 -k RTR 
- -t 2.200314819 -s 1 -d 4 -p tcp -e 1540 -c 2 -a 0 -i 11 -k RTR
h -t 2.200314819 -s 1 -d 4 -p tcp -e 1540 -c 2 -a 0 -i 11 -k RTR
r -t 2.214140541 -s 4 -d 4 -p tcp -e 1540 -c 2 -a 0 -i 11 -k AGT
+ -t 2.214140541 -s 4 -d -1 -p ack -e 40 -c 2 -a 0 -i 18 -k AGT 
- -t 2.214140541 -s 4 -d -1 -p ack -e 40 -c 2 -a 0 -i 18 -k AGT
h -t 2.214140541 -s 4 -d -1 -p ack -e 40 -c 2 -a 0 -i 18 -k AGT
+ -t 2.214140541 -s 4 -d 10 -p ack -e 40 -c 2 -a 0 -i 18 -k RTR 
- -t 2.214140541 -s 4 -d 10 -p ack -e 40 -c 2 -a 0 -i 18 -k RTR
h -t 2.214140541 -s 4 -d 10 -p ack -e 40 -c 2 -a 0 -i 18 -k RTR
+ -t 2.216226329 -s 10 -d 0 -p ack -e 40 -c 2 -a 0 -i 18 -k RTR 
- -t 2.216226329 -s 10 -d 0 -p ack -e 40 -c 2 -a 0 -i 18 -k RTR
h -t 2.216226329 -s 10 -d 0 -p ack -e 40 -c 2 -a 0 -i 18 -k RTR
+ -t 2.230162707 -s 1 -d 4 -p tcp -e 1540 -c 2 -a 0 -i 12 -k RTR 
- -t 2.230162707 -s 1 -d 4 -p tcp -e 1540 -c 2 -a 0 -i 12 -k RTR
h -t 2.230162707 -s 1 -d 4 -p tcp -e 1540 -c 2 -a 0 -i 12 -k RTR
+ -t 2.244009122 -s 1 -d 4 -p tcp -e 1540 -c 2 -a 0 -i 13 -k RTR 
- -t 2.244009122 -s 1 -d 4 -p tcp -e 1540 -c 2 -a 0 -i 13 -k RTR
h -t 2.244009122 -s 1 -d 4 -p tcp -e 1540 -c 2 -a 0 -i 13 -k RTR
+ -t 2.257855536 -s 1 -d 4 -p tcp -e 1540 -c 2 -a 0 -i 14 -k RTR 
- -t 2.257855536 -s 1 -d 4 -p tcp -e 1540 -c 2 -a 0 -i 14 -k RTR
h -t 2.257855536 -s 1 -d 4 -p tcp -e 1540 -c 2 -a 0 -i 14 -k RTR
+ -t 2.271741950 -s 1 -d 4 -p tcp -e 1540 -c 2 -a 0 -i 16 -k RTR 
- -t 2.271741950 -s 1 -d 4 -p tcp -e 1540 -c 2 -a 0 -i 16 -k RTR
h -t 2.271741950 -s 1 -d 4 -p tcp -e 1540 -c 2 -a 0 -i 16 -k RTR
r -t 2.285627672 -s 4 -d 4 -p tcp -e 1540 -c 2 -a 0 -i 12 -k AGT
+ -t 2.285627672 -s 4 -d -1 -p ack -e 40 -c 2 -a 0 -i 19 -k AGT 
- -t 2.285627672 -s 4 -d -1 -p ack -e 40 -c 2 -a 0 -i 19 -k AGT
h -t 2.285627672 -s 4 -d -1 -p ack -e 40 -c 2 -a 0 -i 19 -k AGT
+ -t 2.285627672 -s 4 -d 10 -p ack -e 40 -c 2 -a 0 -i 19 -k RTR 
- -t 2.285627672 -s 4 -d 10 -p ack -e 40 -c 2 -a 0 -i 19 -k RTR
h -t 2.285627672 -s 4 -d 10 -p ack -e 40 -c 2 -a 0 -i 19 -k RTR
r -t 2.299473969 -s 4 -d 4 -p tcp -e 1540 -c 2 -a 0 -i 13 -k AGT
+ -t 2.299473969 -s 4 -d -1 -p ack -e 40 -c 2 -a 0 -i 20 -k AGT 
- -t 2.299473969 -s 4 -d -1 -p ack -e 40 -c 2 -a 0 -i 20 -k AGT
h -t 2.299473969 -s 4 -d -1 -p ack -e 40 -c 2 -a 0 -i 20 -k AGT
+ -t 2.299473969 -s 4 -d 10 -p ack -e 40 -c 2 -a 0 -i 20 -k RTR 
- -t 2.299473969 -s 4 -d 10 -p ack -e 40 -c 2 -a 0 -i 20 -k RTR
h -t 2.299473969 -s 4 -d 10 -p ack -e 40 -c 2 -a 0 -i 20 -k RTR
r -t 2.313320265 -s 4 -d 4 -p tcp -e 1540 -c 2 -a 0 -i 14 -k AGT
+ -t 2.313320265 -s 4 -d -1 -p ack -e 40 -c 2 -a 0 -i 21 -k AGT 
- -t 2.313320265 -s 4 -d -1 -p ack -e 40 -c 2 -a 0 -i 21 -k AGT
h -t 2.313320265 -s 4 -d -1 -p ack -e 40 -c 2 -a 0 -i 21 -k AGT
+ -t 2.313320265 -s 4 -d 10 -p ack -e 40 -c 2 -a 0 -i 21 -k RTR 
- -t 2.313320265 -s 4 -d 10 -p ack -e 40 -c 2 -a 0 -i 21 -k RTR
h -t 2.313320265 -s 4 -d 10 -p ack -e 40 -c 2 -a 0 -i 21 -k RTR
+ -t 2.315426044 -s 10 -d 0 -p ack -e 40 -c 2 -a 0 -i 19 -k RTR 
- -t 2.315426044 -s 10 -d 0 -p ack -e 40 -c 2 -a 0 -i 19 -k RTR
h -t 2.315426044 -s 10 -d 0 -p ack -e 40 -c 2 -a 0 -i 19 -k RTR
r -t 2.317312476 -s 0 -d 0 -p ack -e 40 -c 2 -a 0 -i 18 -k AGT
+ -t 2.317312476 -s 0 -d -1 -p tcp -e 1540 -c 2 -a 0 -i 22 -k AGT 
- -t 2.317312476 -s 0 -d -1 -p tcp -e 1540 -c 2 -a 0 -i 22 -k AGT
h -t 2.317312476 -s 0 -d -1 -p tcp -e 1540 -c 2 -a 0 -i 22 -k AGT
+ -t 2.317312476 -s 0 -d -1 -p tcp -e 1540 -c 2 -a 0 -i 23 -k AGT 
- -t 2.317312476 -s 0 -d -1 -p tcp -e 1540 -c 2 -a 0 -i 23 -k AGT
h -t 2.317312476 -s 0 -d -1 -p tcp -e 1540 -c 2 -a 0 -i 23 -k AGT
+ -t 2.317312476 -s 0 -d 1 -p tcp -e 1540 -c 2 -a 0 -i 22 -k RTR 
- -t 2.317312476 -s 0 -d 1 -p tcp -e 1540 -c 2 -a 0 -i 22 -k RTR
h -t 2.317312476 -s 0 -d 1 -p tcp -e 1540 -c 2 -a 0 -i 22 -k RTR
+ -t 2.317312476 -s 0 -d 1 -p tcp -e 1540 -c 2 -a 0 -i 23 -k RTR 
- -t 2.317312476 -s 0 -d 1 -p tcp -e 1540 -c 2 -a 0 -i 23 -k RTR
h -t 2.317312476 -s 0 -d 1 -p tcp -e 1540 -c 2 -a 0 -i 23 -k RTR
r -t 2.331198801 -s 4 -d 4 -p tcp -e 1540 -c 2 -a 0 -i 16 -k AGT
+ -t 2.331198801 -s 4 -d -1 -p ack -e 40 -c 2 -a 0 -i 24 -k AGT 
- -t 2.331198801 -s 4 -d -1 -p ack -e 40 -c 2 -a 0 -i 24 -k AGT
h -t 2.331198801 -s 4 -d -1 -p ack -e 40 -c 2 -a 0 -i 24 -k AGT
+ -t 2.331198801 -s 4 -d 10 -p ack -e 40 -c 2 -a 0 -i 24 -k RTR 
- -t 2.331198801 -s 4 -d 10 -p ack -e 40 -c 2 -a 0 -i 24 -k RTR
h -t 2.331198801 -s 4 -d 10 -p ack -e 40 -c 2 -a 0 -i 24 -k RTR
r -t 2.333345825 -s 0 -d 0 -p ack -e 40 -c 2 -a 0 -i 19 -k AGT
+ -t 2.333345825 -s 0 -d -1 -p tcp -e 1540 -c 2 -a 0 -i 25 -k AGT 
- -t 2.333345825 -s 0 -d -1 -p tcp -e 1540 -c 2 -a 0 -i 25 -k AGT
h -t 2.333345825 -s 0 -d -1 -p tcp -e 1540 -c 2 -a 0 -i 25 -k AGT
+ -t 2.333345825 -s 0 -d -1 -p tcp -e 1540 -c 2 -a 0 -i 26 -k AGT 
- -t 2.333345825 -s 0 -d -1 -p tcp -e 1540 -c 2 -a 0 -i 26 -k AGT
h -t 2.333345825 -s 0 -d -1 -p tcp -e 1540 -c 2 -a 0 -i 26 -k AGT
+ -t 2.333345825 -s 0 -d 1 -p tcp -e 1540 -c 2 -a 0 -i 25 -k RTR 
- -t 2.333345825 -s 0 -d 1 -p tcp -e 1540 -c 2 -a 0 -i 25 -k RTR
h -t 2.333345825 -s 0 -d 1 -p tcp -e 1540 -c 2 -a 0 -i 25 -k RTR
+ -t 2.333345825 -s 0 -d 1 -p tcp -e 1540 -c 2 -a 0 -i 26 -k RTR 
- -t 2.333345825 -s 0 -d 1 -p tcp -e 1540 -c 2 -a 0 -i 26 -k RTR
h -t 2.333345825 -s 0 -d 1 -p tcp -e 1540 -c 2 -a 0 -i 26 -k RTR
+ -t 2.347331633 -s 1 -d 4 -p tcp -e 1540 -c 2 -a 0 -i 17 -k RTR 
- -t 2.347331633 -s 1 -d 4 -p tcp -e 1540 -c 2 -a 0 -i 17 -k RTR
h -t 2.347331633 -s 1 -d 4 -p tcp -e 1540 -c 2 -a 0 -i 17 -k RTR
r -t 2.361177355 -s 4 -d 4 -p tcp -e 1540 -c 2 -a 0 -i 17 -k AGT
+ -t 2.361177355 -s 4 -d -1 -p ack -e 40 -c 2 -a 0 -i 27 -k AGT 
- -t 2.361177355 -s 4 -d -1 -p ack -e 40 -c 2 -a 0 -i 27 -k AGT
h -t 2.361177355 -s 4 -d -1 -p ack -e 40 -c 2 -a 0 -i 27 -k AGT
+ -t 2.361177355 -s 4 -d 10 -p ack -e 40 -c 2 -a 0 -i 27 -k RTR 
- -t 2.361177355 -s 4 -d 10 -p ack -e 40 -c 2 -a 0 -i 27 -k RTR
h -t 2.361177355 -s 4 -d 10 -p ack -e 40 -c 2 -a 0 -i 27 -k RTR
+ -t 2.363083129 -s 10 -d 0 -p ack -e 40 -c 2 -a 0 -i 20 -k RTR 
- -t 2.363083129 -s 10 -d 0 -p ack -e 40 -c 2 -a 0 -i 20 -k RTR
h -t 2.363083129 -s 10 -d 0 -p ack -e 40 -c 2 -a 0 -i 20 -k RTR
r -t 2.365029560 -s 0 -d 0 -p ack -e 40 -c 2 -a 0 -i 20 -k AGT
+ -t 2.365029560 -s 0 -d -1 -p tcp -e 1540 -c 2 -a 0 -i 28 -k AGT 
- -t 2.365029560 -s 0 -d -1 -p tcp -e 1540 -c 2 -a 0 -i 28 -k AGT
h -t 2.365029560 -s 0 -d -1 -p tcp -e 1540 -c 2 -a 0 -i 28 -k AGT
+ -t 2.365029560 -s 0 -d -1 -p tcp -e 1540 -c 2 -a 0 -i 29 -k AGT 
- -t 2.365029560 -s 0 -d -1 -p tcp -e 1540 -c 2 -a 0 -i 29 -k AGT
h -t 2.365029560 -s 0 -d -1 -p tcp -e 1540 -c 2 -a 0 -i 29 -k AGT
+ -t 2.365029560 -s 0 -d 1 -p tcp -e 1540 -c 2 -a 0 -i 28 -k RTR 
- -t 2.365029560 -s 0 -d 1 -p tcp -e 1540 -c 2 -a 0 -i 28 -k RTR
h -t 2.365029560 -s 0 -d 1 -p tcp -e 1540 -c 2 -a 0 -i 28 -k RTR
+ -t 2.365029560 -s 0 -d 1 -p tcp -e 1540 -c 2 -a 0 -i 29 -k RTR 
- -t 2.365029560 -s 0 -d 1 -p tcp -e 1540 -c 2 -a 0 -i 29 -k RTR
h -t 2.365029560 -s 0 -d 1 -p tcp -e 1540 -c 2 -a 0 -i 29 -k RTR
+ -t 2.378975367 -s 1 -d 4 -p tcp -e 1540 -c 2 -a 0 -i 22 -k RTR 
- -t 2.378975367 -s 1 -d 4 -p tcp -e 1540 -c 2 -a 0 -i 22 -k RTR
h -t 2.378975367 -s 1 -d 4 -p tcp -e 1540 -c 2 -a 0 -i 22 -k RTR
+ -t 2.380931696 -s 10 -d 0 -p ack -e 40 -c 2 -a 0 -i 21 -k RTR 
- -t 2.380931696 -s 10 -d 0 -p ack -e 40 -c 2 -a 0 -i 21 -k RTR
h -t 2.380931696 -s 10 -d 0 -p ack -e 40 -c 2 -a 0 -i 21 -k RTR
r -t 2.382758127 -s 0 -d 0 -p ack -e 40 -c 2 -a 0 -i 21 -k AGT
+ -t 2.382758127 -s 0 -d -1 -p tcp -e 1540 -c 2 -a 0 -i 30 -k AGT 
- -t 2.382758127 -s 0 -d -1 -p tcp -e 1540 -c 2 -a 0 -i 30 -k AGT
h -t 2.382758127 -s 0 -d -1 -p tcp -e 1540 -c 2 -a 0 -i 30 -k AGT
+ -t 2.382758127 -s 0 -d -1 -p tcp -e 1540 -c 2 -a 0 -i 31 -k AGT 
- -t 2.382758127 -s 0 -d -1 -p tcp -e 1540 -c 2 -a 0 -i 31 -k AGT
h -t 2.382758127 -s 0 -d -1 -p tcp -e 1540 -c 2 -a 0 -i 31 -k AGT
+ -t 2.382758127 -s 0 -d 1 -p tcp -e 1540 -c 2 -a 0 -i 30 -k RTR 
- -t 2.382758127 -s 0 -d 1 -p tcp -e 1540 -c 2 -a 0 -i 30 -k RTR
h -t 2.382758127 -s 0 -d 1 -p tcp -e 1540 -c 2 -a 0 -i 30 -k RTR
+ -t 2.382758127 -s 0 -d 1 -p tcp -e 1540 -c 2 -a 0 -i 31 -k RTR 
- -t 2.382758127 -s 0 -d 1 -p tcp -e 1540 -c 2 -a 0 -i 31 -k RTR
h -t 2.382758127 -s 0 -d 1 -p tcp -e 1540 -c 2 -a 0 -i 31 -k RTR
+ -t 2.396703933 -s 1 -d 4 -p tcp -e 1540 -c 2 -a 0 -i 23 -k RTR 
- -t 2.396703933 -s 1 -d 4 -p tcp -e 1540 -c 2 -a 0 -i 23 -k RTR
h -t 2.396703933 -s 1 -d 4 -p tcp -e 1540 -c 2 -a 0 -i 23 -k RTR
r -t 2.410569655 -s 4 -d 4 -p tcp -e 1540 -c 2 -a 0 -i 22 -k AGT
+ -t 2.410569655 -s 4 -d -1 -p ack -e 40 -c 2 -a 0 -i 32 -k AGT 
- -t 2.410569655 -s 4 -d -1 -p ack -e 40 -c 2 -a 0 -i 32 -k AGT
h -t 2.410569655 -s 4 -d -1 -p ack -e 40 -c 2 -a 0 -i 32 -k AGT
+ -t 2.410569655 -s 4 -d 10 -p ack -e 40 -c 2 -a 0 -i 32 -k RTR 
- -t 2.410569655 -s 4 -d 10 -p ack -e 40 -c 2 -a 0 -i 32 -k RTR
h -t 2.410569655 -s 4 -d 10 -p ack -e 40 -c 2 -a 0 -i 32 -k RTR
+ -t 2.412495425 -s 10 -d 0 -p ack -e 40 -c 2 -a 0 -i 24 -k RTR 
- -t 2.412495425 -s 10 -d 0 -p ack -e 40 -c 2 -a 0 -i 24 -k RTR
h -t 2.412495425 -s 10 -d 0 -p ack -e 40 -c 2 -a 0 -i 24 -k RTR
r -t 2.426781457 -s 4 -d 4 -p tcp -e 1540 -c 2 -a 0 -i 23 -k AGT
+ -t 2.426781457 -s 4 -d -1 -p ack -e 40 -c 2 -a 0 -i 33 -k AGT 
- -t 2.426781457 -s 4 -d -1 -p ack -e 40 -c 2 -a 0 -i 33 -k AGT
h -t 2.426781457 -s 4 -d -1 -p ack -e 40 -c 2 -a 0 -i 33 -k AGT
+ -t 2.426781457 -s 4 -d 10 -p ack -e 40 -c 2 -a 0 -i 33 -k RTR 
- -t 2.426781457 -s 4 -d 10 -p ack -e 40 -c 2 -a 0 -i 33 -k RTR
h -t 2.426781457 -s 4 -d 10 -p ack -e 40 -c 2 -a 0 -i 33 -k RTR
+ -t 2.428727225 -s 10 -d 0 -p ack -e 40 -c 2 -a 0 -i 27 -k RTR 
- -t 2.428727225 -s 10 -d 0 -p ack -e 40 -c 2 -a 0 -i 27 -k RTR