n -t * -s 0  -x 131 -y 876 -Z 0 -z 25  -v circle -c black
n -t * -s 1  -x 790 -y 483 -Z 0 -z 25  -v circle -c black
n -t * -s 2  -x 523 -y 422 -Z 0 -z 25  -v circle -c black
n -t * -s 3  -x 427 -y 460 -Z 0 -z 25  -v circle -c black
n -t * -s 4  -x 213 -y 687 -Z 0 -z 25  -v circle -c black
n -t * -s 5  -x 134 -y 944 -Z 0 -z 25  -v circle -c black
n -t * -s 6  -x 983 -y 818 -Z 0 -z 25  -v circle -c black
n -t * -s 7  -x 807 -y 160 -Z 0 -z 25  -v circle -c black
n -t * -s 8  -x 618 -y 779 -Z 0 -z 25  -v circle -c black
n -t * -s 9  -x 357 -y 668 -Z 0 -z 25  -v circle -c black
V -t * -v 1.0a5 -a 0
W -t * -x 1000 -y 1000
A -t * -n 1 -p 0 -o 0x7fffffff -c 30 -a 1
A -t * -h 1 -m 1073741823 -s 0
n -t 1.000000 -s 0 -x 131.000000 -y 876.000000 -U 1.720387 -V -2.457696 -T 85.445889
n -t 1.000000 -s 1 -x 790.000000 -y 483.000000 -U 0.517210 -V -4.973177 -T 75.404509
n -t 1.000000 -s 2 -x 523.000000 -y 422.000000 -U -0.838604 -V -1.815694 -T 129.977883
n -t 1.000000 -s 3 -x 427.000000 -y 460.000000 -U 0.211079 -V -4.995543 -T 71.063352
n -t 1.000000 -s 4 -x 213.000000 -y 687.000000 -U 2.904938 -V -5.249889 -T 28.572034
n -t 1.000000 -s 5 -x 134.000000 -y 944.000000 -U 1.556328 -V -1.256122 -T 506.320057
n -t 1.000000 -s 6 -x 983.000000 -y 818.000000 -U -0.000000 -V 0.000000 -T 0.000000
n -t 1.000000 -s 7 -x 807.000000 -y 160.000000 -U -4.988926 -V -0.332595 -T 117.259712
n -t 1.000000 -s 8 -x 618.000000 -y 779.000000 -U 8.578118 -V 2.723212 -T 22.032804
n -t 1.000000 -s 9 -x 357.000000 -y 668.000000 -U 4.917531 -V -0.904373 -T 53.075418
+ -t 1.000000000 -s 0 -d -1 -p tcp -e 40 -c 2 -a 0 -i 0 -k AGT 
- -t 1.000000000 -s 0 -d -1 -p tcp -e 40 -c 2 -a 0 -i 0 -k AGT
h -t 1.000000000 -s 0 -d -1 -p tcp -e 40 -c 2 -a 0 -i 0 -k AGT
+ -t 1.000000000 -s 0 -d -1 -p AODV -e 48 -c 2 -a 0 -i 0 -k RTR 
- -t 1.000000000 -s 0 -d -1 -p AODV -e 48 -c 2 -a 0 -i 0 -k RTR
h -t 1.000000000 -s 0 -d -1 -p AODV -e 48 -c 2 -a 0 -i 0 -k RTR
r -t 1.000988227 -s 5 -d -1 -p AODV -e 48 -c 2 -a 0 -i 0 -k RTR
r -t 1.000988687 -s 4 -d -1 -p AODV -e 48 -c 2 -a 0 -i 0 -k RTR
+ -t 1.000988687 -s 4 -d 0 -p AODV -e 44 -c 2 -a 0 -i 0 -k RTR 
- -t 1.000988687 -s 4 -d 0 -p AODV -e 44 -c 2 -a 0 -i 0 -k RTR
h -t 1.000988687 -s 4 -d 0 -p AODV -e 44 -c 2 -a 0 -i 0 -k RTR
+ -t 1.001869454 -s 5 -d -1 -p AODV -e 48 -c 2 -a 0 -i 0 -k RTR 
- -t 1.001869454 -s 5 -d -1 -p AODV -e 48 -c 2 -a 0 -i 0 -k RTR
h -t 1.001869454 -s 5 -d -1 -p AODV -e 48 -c 2 -a 0 -i 0 -k RTR
+ -t 1.005771494 -s 0 -d 4 -p tcp -e 40 -c 2 -a 0 -i 0 -k RTR 
- -t 1.005771494 -s 0 -d 4 -p tcp -e 40 -c 2 -a 0 -i 0 -k RTR
h -t 1.005771494 -s 0 -d 4 -p tcp -e 40 -c 2 -a 0 -i 0 -k RTR
r -t 1.007637555 -s 4 -d 4 -p tcp -e 40 -c 2 -a 0 -i 0 -k AGT
+ -t 1.007637555 -s 4 -d -1 -p ack -e 40 -c 2 -a 0 -i 1 -k AGT 
- -t 1.007637555 -s 4 -d -1 -p ack -e 40 -c 2 -a 0 -i 1 -k AGT
h -t 1.007637555 -s 4 -d -1 -p ack -e 40 -c 2 -a 0 -i 1 -k AGT
+ -t 1.007637555 -s 4 -d 0 -p ack -e 40 -c 2 -a 0 -i 1 -k RTR 
- -t 1.007637555 -s 4 -d 0 -p ack -e 40 -c 2 -a 0 -i 1 -k RTR
h -t 1.007637555 -s 4 -d 0 -p ack -e 40 -c 2 -a 0 -i 1 -k RTR
r -t 1.009783615 -s 0 -d 0 -p ack -e 40 -c 2 -a 0 -i 1 -k AGT
+ -t 1.009783615 -s 0 -d -1 -p tcp -e 1540 -c 2 -a 0 -i 2 -k AGT 
- -t 1.009783615 -s 0 -d -1 -p tcp -e 1540 -c 2 -a 0 -i 2 -k AGT
h -t 1.009783615 -s 0 -d -1 -p tcp -e 1540 -c 2 -a 0 -i 2 -k AGT
+ -t 1.009783615 -s 0 -d -1 -p tcp -e 1540 -c 2 -a 0 -i 3 -k AGT 
- -t 1.009783615 -s 0 -d -1 -p tcp -e 1540 -c 2 -a 0 -i 3 -k AGT
h -t 1.009783615 -s 0 -d -1 -p tcp -e 1540 -c 2 -a 0 -i 3 -k AGT
+ -t 1.009783615 -s 0 -d 4 -p tcp -e 1540 -c 2 -a 0 -i 2 -k RTR 
- -t 1.009783615 -s 0 -d 4 -p tcp -e 1540 -c 2 -a 0 -i 2 -k RTR
h -t 1.009783615 -s 0 -d 4 -p tcp -e 1540 -c 2 -a 0 -i 2 -k RTR
+ -t 1.009783615 -s 0 -d 4 -p tcp -e 1540 -c 2 -a 0 -i 3 -k RTR 
- -t 1.009783615 -s 0 -d 4 -p tcp -e 1540 -c 2 -a 0 -i 3 -k RTR
h -t 1.009783615 -s 0 -d 4 -p tcp -e 1540 -c 2 -a 0 -i 3 -k RTR
r -t 1.011046051 -s 0 -d -1 -p AODV -e 48 -c 2 -a 0 -i 0 -k RTR
r -t 1.024758112 -s 4 -d 4 -p tcp -e 1540 -c 2 -a 0 -i 2 -k AGT
+ -t 1.024758112 -s 4 -d -1 -p ack -e 40 -c 2 -a 0 -i 4 -k AGT 
- -t 1.024758112 -s 4 -d -1 -p ack -e 40 -c 2 -a 0 -i 4 -k AGT
h -t 1.024758112 -s 4 -d -1 -p ack -e 40 -c 2 -a 0 -i 4 -k AGT
+ -t 1.024758112 -s 4 -d 0 -p ack -e 40 -c 2 -a 0 -i 4 -k RTR 
- -t 1.024758112 -s 4 -d 0 -p ack -e 40 -c 2 -a 0 -i 4 -k RTR
h -t 1.024758112 -s 4 -d 0 -p ack -e 40 -c 2 -a 0 -i 4 -k RTR
r -t 1.026744173 -s 0 -d 0 -p ack -e 40 -c 2 -a 0 -i 4 -k AGT
+ -t 1.026744173 -s 0 -d -1 -p tcp -e 1540 -c 2 -a 0 -i 5 -k AGT 
- -t 1.026744173 -s 0 -d -1 -p tcp -e 1540 -c 2 -a 0 -i 5 -k AGT
h -t 1.026744173 -s 0 -d -1 -p tcp -e 1540 -c 2 -a 0 -i 5 -k AGT
+ -t 1.026744173 -s 0 -d -1 -p tcp -e 1540 -c 2 -a 0 -i 6 -k AGT 
- -t 1.026744173 -s 0 -d -1 -p tcp -e 1540 -c 2 -a 0 -i 6 -k AGT
h -t 1.026744173 -s 0 -d -1 -p tcp -e 1540 -c 2 -a 0 -i 6 -k AGT
+ -t 1.026744173 -s 0 -d 4 -p tcp -e 1540 -c 2 -a 0 -i 5 -k RTR 
- -t 1.026744173 -s 0 -d 4 -p tcp -e 1540 -c 2 -a 0 -i 5 -k RTR
h -t 1.026744173 -s 0 -d 4 -p tcp -e 1540 -c 2 -a 0 -i 5 -k RTR
+ -t 1.026744173 -s 0 -d 4 -p tcp -e 1540 -c 2 -a 0 -i 6 -k RTR 
- -t 1.026744173 -s 0 -d 4 -p tcp -e 1540 -c 2 -a 0 -i 6 -k RTR
h -t 1.026744173 -s 0 -d 4 -p tcp -e 1540 -c 2 -a 0 -i 6 -k RTR
r -t 1.040770234 -s 4 -d 4 -p tcp -e 1540 -c 2 -a 0 -i 3 -k AGT
+ -t 1.040770234 -s 4 -d -1 -p ack -e 40 -c 2 -a 0 -i 7 -k AGT 
- -t 1.040770234 -s 4 -d -1 -p ack -e 40 -c 2 -a 0 -i 7 -k AGT
h -t 1.040770234 -s 4 -d -1 -p ack -e 40 -c 2 -a 0 -i 7 -k AGT
+ -t 1.040770234 -s 4 -d 0 -p ack -e 40 -c 2 -a 0 -i 7 -k RTR 
- -t 1.040770234 -s 4 -d 0 -p ack -e 40 -c 2 -a 0 -i 7 -k RTR
h -t 1.040770234 -s 4 -d 0 -p ack -e 40 -c 2 -a 0 -i 7 -k RTR
r -t 1.042636296 -s 0 -d 0 -p ack -e 40 -c 2 -a 0 -i 7 -k AGT
+ -t 1.042636296 -s 0 -d -1 -p tcp -e 1540 -c 2 -a 0 -i 8 -k AGT 
- -t 1.042636296 -s 0 -d -1 -p tcp -e 1540 -c 2 -a 0 -i 8 -k AGT
h -t 1.042636296 -s 0 -d -1 -p tcp -e 1540 -c 2 -a 0 -i 8 -k AGT
+ -t 1.042636296 -s 0 -d -1 -p tcp -e 1540 -c 2 -a 0 -i 9 -k AGT 
- -t 1.042636296 -s 0 -d -1 -p tcp -e 1540 -c 2 -a 0 -i 9 -k AGT
h -t 1.042636296 -s 0 -d -1 -p tcp -e 1540 -c 2 -a 0 -i 9 -k AGT
+ -t 1.042636296 -s 0 -d 4 -p tcp -e 1540 -c 2 -a 0 -i 8 -k RTR 
- -t 1.042636296 -s 0 -d 4 -p tcp -e 1540 -c 2 -a 0 -i 8 -k RTR
h -t 1.042636296 -s 0 -d 4 -p tcp -e 1540 -c 2 -a 0 -i 8 -k RTR
+ -t 1.042636296 -s 0 -d 4 -p tcp -e 1540 -c 2 -a 0 -i 9 -k RTR 
- -t 1.042636296 -s 0 -d 4 -p tcp -e 1540 -c 2 -a 0 -i 9 -k RTR
h -t 1.042636296 -s 0 -d 4 -p tcp -e 1540 -c 2 -a 0 -i 9 -k RTR
r -t 1.056582357 -s 4 -d 4 -p tcp -e 1540 -c 2 -a 0 -i 5 -k AGT
+ -t 1.056582357 -s 4 -d -1 -p ack -e 40 -c 2 -a 0 -i 10 -k AGT 
- -t 1.056582357 -s 4 -d -1 -p ack -e 40 -c 2 -a 0 -i 10 -k AGT
h -t 1.056582357 -s 4 -d -1 -p ack -e 40 -c 2 -a 0 -i 10 -k AGT
+ -t 1.056582357 -s 4 -d 0 -p ack -e 40 -c 2 -a 0 -i 10 -k RTR 
- -t 1.056582357 -s 4 -d 0 -p ack -e 40 -c 2 -a 0 -i 10 -k RTR
h -t 1.056582357 -s 4 -d 0 -p ack -e 40 -c 2 -a 0 -i 10 -k RTR
r -t 1.070749106 -s 4 -d 4 -p tcp -e 1540 -c 2 -a 0 -i 6 -k AGT
+ -t 1.070749106 -s 4 -d -1 -p ack -e 40 -c 2 -a 0 -i 11 -k AGT 
- -t 1.070749106 -s 4 -d -1 -p ack -e 40 -c 2 -a 0 -i 11 -k AGT
h -t 1.070749106 -s 4 -d -1 -p ack -e 40 -c 2 -a 0 -i 11 -k AGT
+ -t 1.070749106 -s 4 -d 0 -p ack -e 40 -c 2 -a 0 -i 11 -k RTR 
- -t 1.070749106 -s 4 -d 0 -p ack -e 40 -c 2 -a 0 -i 11 -k RTR
h -t 1.070749106 -s 4 -d 0 -p ack -e 40 -c 2 -a 0 -i 11 -k RTR
r -t 1.072595169 -s 0 -d 0 -p ack -e 40 -c 2 -a 0 -i 10 -k AGT
+ -t 1.072595169 -s 0 -d -1 -p tcp -e 1540 -c 2 -a 0 -i 12 -k AGT 
- -t 1.072595169 -s 0 -d -1 -p tcp -e 1540 -c 2 -a 0 -i 12 -k AGT
h -t 1.072595169 -s 0 -d -1 -p tcp -e 1540 -c 2 -a 0 -i 12 -k AGT
+ -t 1.072595169 -s 0 -d -1 -p tcp -e 1540 -c 2 -a 0 -i 13 -k AGT 
- -t 1.072595169 -s 0 -d -1 -p tcp -e 1540 -c 2 -a 0 -i 13 -k AGT
h -t 1.072595169 -s 0 -d -1 -p tcp -e 1540 -c 2 -a 0 -i 13 -k AGT
+ -t 1.072595169 -s 0 -d 4 -p tcp -e 1540 -c 2 -a 0 -i 12 -k RTR 
- -t 1.072595169 -s 0 -d 4 -p tcp -e 1540 -c 2 -a 0 -i 12 -k RTR
h -t 1.072595169 -s 0 -d 4 -p tcp -e 1540 -c 2 -a 0 -i 12 -k RTR
+ -t 1.072595169 -s 0 -d 4 -p tcp -e 1540 -c 2 -a 0 -i 13 -k RTR 
- -t 1.072595169 -s 0 -d 4 -p tcp -e 1540 -c 2 -a 0 -i 13 -k RTR
h -t 1.072595169 -s 0 -d 4 -p tcp -e 1540 -c 2 -a 0 -i 13 -k RTR
r -t 1.074621919 -s 0 -d 0 -p ack -e 40 -c 2 -a 0 -i 11 -k AGT
+ -t 1.074621919 -s 0 -d -1 -p tcp -e 1540 -c 2 -a 0 -i 14 -k AGT 
- -t 1.074621919 -s 0 -d -1 -p tcp -e 1540 -c 2 -a 0 -i 14 -k AGT
h -t 1.074621919 -s 0 -d -1 -p tcp -e 1540 -c 2 -a 0 -i 14 -k AGT
+ -t 1.074621919 -s 0 -d -1 -p tcp -e 1540 -c 2 -a 0 -i 15 -k AGT 
- -t 1.074621919 -s 0 -d -1 -p tcp -e 1540 -c 2 -a 0 -i 15 -k AGT
h -t 1.074621919 -s 0 -d -1 -p tcp -e 1540 -c 2 -a 0 -i 15 -k AGT
+ -t 1.074621919 -s 0 -d 4 -p tcp -e 1540 -c 2 -a 0 -i 14 -k RTR 
- -t 1.074621919 -s 0 -d 4 -p tcp -e 1540 -c 2 -a 0 -i 14 -k RTR
h -t 1.074621919 -s 0 -d 4 -p tcp -e 1540 -c 2 -a 0 -i 14 -k RTR
+ -t 1.074621919 -s 0 -d 4 -p tcp -e 1540 -c 2 -a 0 -i 15 -k RTR 
- -t 1.074621919 -s 0 -d 4 -p tcp -e 1540 -c 2 -a 0 -i 15 -k RTR
h -t 1.074621919 -s 0 -d 4 -p tcp -e 1540 -c 2 -a 0 -i 15 -k RTR
r -t 1.088547981 -s 4 -d 4 -p tcp -e 1540 -c 2 -a 0 -i 8 -k AGT
+ -t 1.088547981 -s 4 -d -1 -p ack -e 40 -c 2 -a 0 -i 16 -k AGT 
- -t 1.088547981 -s 4 -d -1 -p ack -e 40 -c 2 -a 0 -i 16 -k AGT
h -t 1.088547981 -s 4 -d -1 -p ack -e 40 -c 2 -a 0 -i 16 -k AGT
+ -t 1.088547981 -s 4 -d 0 -p ack -e 40 -c 2 -a 0 -i 16 -k RTR 
- -t 1.088547981 -s 4 -d 0 -p ack -e 40 -c 2 -a 0 -i 16 -k RTR
h -t 1.088547981 -s 4 -d 0 -p ack -e 40 -c 2 -a 0 -i 16 -k RTR
r -t 1.102394732 -s 4 -d 4 -p tcp -e 1540 -c 2 -a 0 -i 9 -k AGT
+ -t 1.102394732 -s 4 -d -1 -p ack -e 40 -c 2 -a 0 -i 17 -k AGT 
- -t 1.102394732 -s 4 -d -1 -p ack -e 40 -c 2 -a 0 -i 17 -k AGT
h -t 1.102394732 -s 4 -d -1 -p ack -e 40 -c 2 -a 0 -i 17 -k AGT
+ -t 1.102394732 -s 4 -d 0 -p ack -e 40 -c 2 -a 0 -i 17 -k RTR 
- -t 1.102394732 -s 4 -d 0 -p ack -e 40 -c 2 -a 0 -i 17 -k RTR
h -t 1.102394732 -s 4 -d 0 -p ack -e 40 -c 2 -a 0 -i 17 -k RTR
r -t 1.104320795 -s 0 -d 0 -p ack -e 40 -c 2 -a 0 -i 16 -k AGT
+ -t 1.104320795 -s 0 -d -1 -p tcp -e 1540 -c 2 -a 0 -i 18 -k AGT 
- -t 1.104320795 -s 0 -d -1 -p tcp -e 1540 -c 2 -a 0 -i 18 -k AGT
h -t 1.104320795 -s 0 -d -1 -p tcp -e 1540 -c 2 -a 0 -i 18 -k AGT
+ -t 1.104320795 -s 0 -d -1 -p tcp -e 1540 -c 2 -a 0 -i 19 -k AGT 
- -t 1.104320795 -s 0 -d -1 -p tcp -e 1540 -c 2 -a 0 -i 19 -k AGT
h -t 1.104320795 -s 0 -d -1 -p tcp -e 1540 -c 2 -a 0 -i 19 -k AGT
+ -t 1.104320795 -s 0 -d 4 -p tcp -e 1540 -c 2 -a 0 -i 18 -k RTR 
- -t 1.104320795 -s 0 -d 4 -p tcp -e 1540 -c 2 -a 0 -i 18 -k RTR
h -t 1.104320795 -s 0 -d 4 -p tcp -e 1540 -c 2 -a 0 -i 18 -k RTR
+ -t 1.104320795 -s 0 -d 4 -p tcp -e 1540 -c 2 -a 0 -i 19 -k RTR 
- -t 1.104320795 -s 0 -d 4 -p tcp -e 1540 -c 2 -a 0 -i 19 -k RTR
h -t 1.104320795 -s 0 -d 4 -p tcp -e 1540 -c 2 -a 0 -i 19 -k RTR
r -t 1.118286859 -s 4 -d 4 -p tcp -e 1540 -c 2 -a 0 -i 12 -k AGT
+ -t 1.118286859 -s 4 -d -1 -p ack -e 40 -c 2 -a 0 -i 20 -k AGT 
- -t 1.118286859 -s 4 -d -1 -p ack -e 40 -c 2 -a 0 -i 20 -k AGT
h -t 1.118286859 -s 4 -d -1 -p ack -e 40 -c 2 -a 0 -i 20 -k AGT
+ -t 1.118286859 -s 4 -d 0 -p ack -e 40 -c 2 -a 0 -i 20 -k RTR 
- -t 1.118286859 -s 4 -d 0 -p ack -e 40 -c 2 -a 0 -i 20 -k RTR
h -t 1.118286859 -s 4 -d 0 -p ack -e 40 -c 2 -a 0 -i 20 -k RTR
r -t 1.132293610 -s 4 -d 4 -p tcp -e 1540 -c 2 -a 0 -i 13 -k AGT
+ -t 1.132293610 -s 4 -d -1 -p ack -e 40 -c 2 -a 0 -i 21 -k AGT 
- -t 1.132293610 -s 4 -d -1 -p ack -e 40 -c 2 -a 0 -i 21 -k AGT
h -t 1.132293610 -s 4 -d -1 -p ack -e 40 -c 2 -a 0 -i 21 -k AGT
+ -t 1.132293610 -s 4 -d 0 -p ack -e 40 -c 2 -a 0 -i 21 -k RTR 
- -t 1.132293610 -s 4 -d 0 -p ack -e 40 -c 2 -a 0 -i 21 -k RTR
h -t 1.132293610 -s 4 -d 0 -p ack -e 40 -c 2 -a 0 -i 21 -k RTR
r -t 1.134239675 -s 0 -d 0 -p ack -e 40 -c 2 -a 0 -i 17 -k AGT
+ -t 1.134239675 -s 0 -d -1 -p tcp -e 1540 -c 2 -a 0 -i 22 -k AGT 
- -t 1.134239675 -s 0 -d -1 -p tcp -e 1540 -c 2 -a 0 -i 22 -k AGT
h -t 1.134239675 -s 0 -d -1 -p tcp -e 1540 -c 2 -a 0 -i 22 -k AGT
+ -t 1.134239675 -s 0 -d -1 -p tcp -e 1540 -c 2 -a 0 -i 23 -k AGT 
- -t 1.134239675 -s 0 -d -1 -p tcp -e 1540 -c 2 -a 0 -i 23 -k AGT
h -t 1.134239675 -s 0 -d -1 -p tcp -e 1540 -c 2 -a 0 -i 23 -k AGT
+ -t 1.134239675 -s 0 -d 4 -p tcp -e 1540 -c 2 -a 0 -i 22 -k RTR 
- -t 1.134239675 -s 0 -d 4 -p tcp -e 1540 -c 2 -a 0 -i 22 -k RTR
h -t 1.134239675 -s 0 -d 4 -p tcp -e 1540 -c 2 -a 0 -i 22 -k RTR
+ -t 1.134239675 -s 0 -d 4 -p tcp -e 1540 -c 2 -a 0 -i 23 -k RTR 
- -t 1.134239675 -s 0 -d 4 -p tcp -e 1540 -c 2 -a 0 -i 23 -k RTR
h -t 1.134239675 -s 0 -d 4 -p tcp -e 1540 -c 2 -a 0 -i 23 -k RTR
r -t 1.136466427 -s 0 -d 0 -p ack -e 40 -c 2 -a 0 -i 20 -k AGT
+ -t 1.136466427 -s 0 -d -1 -p tcp -e 1540 -c 2 -a 0 -i 24 -k AGT 
- -t 1.136466427 -s 0 -d -1 -p tcp -e 1540 -c 2 -a 0 -i 24 -k AGT
h -t 1.136466427 -s 0 -d -1 -p tcp -e 1540 -c 2 -a 0 -i 24 -k AGT
+ -t 1.136466427 -s 0 -d -1 -p tcp -e 1540 -c 2 -a 0 -i 25 -k AGT 
- -t 1.136466427 -s 0 -d -1 -p tcp -e 1540 -c 2 -a 0 -i 25 -k AGT
h -t 1.136466427 -s 0 -d -1 -p tcp -e 1540 -c 2 -a 0 -i 25 -k AGT
+ -t 1.136466427 -s 0 -d 4 -p tcp -e 1540 -c 2 -a 0 -i 24 -k RTR 
- -t 1.136466427 -s 0 -d 4 -p tcp -e 1540 -c 2 -a 0 -i 24 -k RTR
h -t 1.136466427 -s 0 -d 4 -p tcp -e 1540 -c 2 -a 0 -i 24 -k RTR
+ -t 1.136466427 -s 0 -d 4 -p tcp -e 1540 -c 2 -a 0 -i 25 -k RTR 
- -t 1.136466427 -s 0 -d 4 -p tcp -e 1540 -c 2 -a 0 -i 25 -k RTR
h -t 1.136466427 -s 0 -d 4 -p tcp -e 1540 -c 2 -a 0 -i 25 -k RTR
r -t 1.150352491 -s 4 -d 4 -p tcp -e 1540 -c 2 -a 0 -i 14 -k AGT
+ -t 1.150352491 -s 4 -d -1 -p ack -e 40 -c 2 -a 0 -i 26 -k AGT 
- -t 1.150352491 -s 4 -d -1 -p ack -e 40 -c 2 -a 0 -i 26 -k AGT
h -t 1.150352491 -s 4 -d -1 -p ack -e 40 -c 2 -a 0 -i 26 -k AGT
+ -t 1.150352491 -s 4 -d 0 -p ack -e 40 -c 2 -a 0 -i 26 -k RTR 
- -t 1.150352491 -s 4 -d 0 -p ack -e 40 -c 2 -a 0 -i 26 -k RTR
h -t 1.150352491 -s 4 -d 0 -p ack -e 40 -c 2 -a 0 -i 26 -k RTR
r -t 1.164539244 -s 4 -d 4 -p tcp -e 1540 -c 2 -a 0 -i 15 -k AGT
+ -t 1.164539244 -s 4 -d -1 -p ack -e 40 -c 2 -a 0 -i 27 -k AGT 
- -t 1.164539244 -s 4 -d -1 -p ack -e 40 -c 2 -a 0 -i 27 -k AGT
h -t 1.164539244 -s 4 -d -1 -p ack -e 40 -c 2 -a 0 -i 27 -k AGT
+ -t 1.164539244 -s 4 -d 0 -p ack -e 40 -c 2 -a 0 -i 27 -k RTR 
- -t 1.164539244 -s 4 -d 0 -p ack -e 40 -c 2 -a 0 -i 27 -k RTR
h -t 1.164539244 -s 4 -d 0 -p ack -e 40 -c 2 -a 0 -i 27 -k RTR
r -t 1.178405998 -s 4 -d 4 -p tcp -e 1540 -c 2 -a 0 -i 18 -k AGT
+ -t 1.178405998 -s 4 -d -1 -p ack -e 40 -c 2 -a 0 -i 28 -k AGT 
- -t 1.178405998 -s 4 -d -1 -p ack -e 40 -c 2 -a 0 -i 28 -k AGT
h -t 1.178405998 -s 4 -d -1 -p ack -e 40 -c 2 -a 0 -i 28 -k AGT
+ -t 1.178405998 -s 4 -d 0 -p ack -e 40 -c 2 -a 0 -i 28 -k RTR 
- -t 1.178405998 -s 4 -d 0 -p ack -e 40 -c 2 -a 0 -i 28 -k RTR
h -t 1.178405998 -s 4 -d 0 -p ack -e 40 -c 2 -a 0 -i 28 -k RTR
r -t 1.180312064 -s 0 -d 0 -p ack -e 40 -c 2 -a 0 -i 21 -k AGT
+ -t 1.180312064 -s 0 -d -1 -p tcp -e 1540 -c 2 -a 0 -i 29 -k AGT 
- -t 1.180312064 -s 0 -d -1 -p tcp -e 1540 -c 2 -a 0 -i 29 -k AGT
h -t 1.180312064 -s 0 -d -1 -p tcp -e 1540 -c 2 -a 0 -i 29 -k AGT
+ -t 1.180312064 -s 0 -d -1 -p tcp -e 1540 -c 2 -a 0 -i 30 -k AGT 
- -t 1.180312064 -s 0 -d -1 -p tcp -e 1540 -c 2 -a 0 -i 30 -k AGT
h -t 1.180312064 -s 0 -d -1 -p tcp -e 1540 -c 2 -a 0 -i 30 -k AGT
+ -t 1.180312064 -s 0 -d 4 -p tcp -e 1540 -c 2 -a 0 -i 29 -k RTR 
- -t 1.180312064 -s 0 -d 4 -p tcp -e 1540 -c 2 -a 0 -i 29 -k RTR
h -t 1.180312064 -s 0 -d 4 -p tcp -e 1540 -c 2 -a 0 -i 29 -k RTR
+ -t 1.180312064 -s 0 -d 4 -p tcp -e 1540 -c 2 -a 0 -i 30 -k RTR 
- -t 1.180312064 -s 0 -d 4 -p tcp -e 1540 -c 2 -a 0 -i 30 -k RTR
h -t 1.180312064 -s 0 -d 4 -p tcp -e 1540 -c 2 -a 0 -i 30 -k RTR
r -t 1.194358129 -s 4 -d 4 -p tcp -e 1540 -c 2 -a 0 -i 19 -k AGT
+ -t 1.194358129 -s 4 -d -1 -p ack -e 40 -c 2 -a 0 -i 31 -k AGT 
- -t 1.194358129 -s 4 -d -1 -p ack -e 40 -c 2 -a 0 -i 31 -k AGT
h -t 1.194358129 -s 4 -d -1 -p ack -e 40 -c 2 -a 0 -i 31 -k AGT
+ -t 1.194358129 -s 4 -d 0 -p ack -e 40 -c 2 -a 0 -i 31 -k RTR 
- -t 1.194358129 -s 4 -d 0 -p ack -e 40 -c 2 -a 0 -i 31 -k RTR
h -t 1.194358129 -s 4 -d 0 -p ack -e 40 -c 2 -a 0 -i 31 -k RTR
r -t 1.198131573 -s 0 -d 0 -p ack -e 40 -c 2 -a 0 -i 26 -k AGT
+ -t 1.198131573 -s 0 -d -1 -p tcp -e 1540 -c 2 -a 0 -i 32 -k AGT 
- -t 1.198131573 -s 0 -d -1 -p tcp -e 1540 -c 2 -a 0 -i 32 -k AGT
h -t 1.198131573 -s 0 -d -1 -p tcp -e 1540 -c 2 -a 0 -i 32 -k AGT
+ -t 1.198131573 -s 0 -d -1 -p tcp -e 1540 -c 2 -a 0 -i 33 -k AGT 
- -t 1.198131573 -s 0 -d -1 -p tcp -e 1540 -c 2 -a 0 -i 33 -k AGT
h -t 1.198131573 -s 0 -d -1 -p tcp -e 1540 -c 2 -a 0 -i 33 -k AGT
+ -t 1.198131573 -s 0 -d 4 -p tcp -e 1540 -c 2 -a 0 -i 32 -k RTR 
- -t 1.198131573 -s 0 -d 4 -p tcp -e 1540 -c 2 -a 0 -i 32 -k RTR
h -t 1.198131573 -s 0 -d 4 -p tcp -e 1540 -c 2 -a 0 -i 32 -k RTR
+ -t 1.198131573 -s 0 -d 4 -p tcp -e 1540 -c 2 -a 0 -i 33 -k RTR 
- -t 1.198131573 -s 0 -d 4 -p tcp -e 1540 -c 2 -a 0 -i 33 -k RTR
h -t 1.198131573 -s 0 -d 4 -p tcp -e 1540 -c 2 -a 0 -i 33 -k RTR
r -t 1.212037639 -s 4 -d 4 -p tcp -e 1540 -c 2 -a 0 -i 22 -k AGT
+ -t 1.212037639 -s 4 -d -1 -p ack -e 40 -c 2 -a 0 -i 34 -k AGT 
- -t 1.212037639 -s 4 -d -1 -p ack -e 40 -c 2 -a 0 -i 34 -k AGT
h -t 1.212037639 -s 4 -d -1 -p ack -e 40 -c 2 -a 0 -i 34 -k AGT
+ -t 1.212037639 -s 4 -d 0 -p ack -e 40 -c 2 -a 0 -i 34 -k RTR 
- -t 1.212037639 -s 4 -d 0 -p ack -e 40 -c 2 -a 0 -i 34 -k RTR
h -t 1.212037639 -s 4 -d 0 -p ack -e 40 -c 2 -a 0 -i 34 -k RTR
r -t 1.225964395 -s 4 -d 4 -p tcp -e 1540 -c 2 -a 0 -i 23 -k AGT
+ -t 1.225964395 -s 4 -d -1 -p ack -e 40 -c 2 -a 0 -i 35 -k AGT 
- -t 1.225964395 -s 4 -d -1 -p ack -e 40 -c 2 -a 0 -i 35 -k AGT
h -t 1.225964395 -s 4 -d -1 -p ack -e 40 -c 2 -a 0 -i 35 -k AGT
+ -t 1.225964395 -s 4 -d 0 -p ack -e 40 -c 2 -a 0 -i 35 -k RTR 
- -t 1.225964395 -s 4 -d 0 -p ack -e 40 -c 2 -a 0 -i 35 -k RTR
h -t 1.225964395 -s 4 -d 0 -p ack -e 40 -c 2 -a 0 -i 35 -k RTR
r -t 1.227810462 -s 0 -d 0 -p ack -e 40 -c 2 -a 0 -i 27 -k AGT
+ -t 1.227810462 -s 0 -d -1 -p tcp -e 1540 -c 2 -a 0 -i 36 -k AGT 
- -t 1.227810462 -s 0 -d -1 -p tcp -e 1540 -c 2 -a 0 -i 36 -k AGT
h -t 1.227810462 -s 0 -d -1 -p tcp -e 1540 -c 2 -a 0 -i 36 -k AGT
+ -t 1.227810462 -s 0 -d -1 -p tcp -e 1540 -c 2 -a 0 -i 37 -k AGT 
- -t 1.227810462 -s 0 -d -1 -p tcp -e 1540 -c 2 -a 0 -i 37 -k AGT
h -t 1.227810462 -s 0 -d -1 -p tcp -e 1540 -c 2 -a 0 -i 37 -k AGT
+ -t 1.227810462 -s 0 -d 4 -p tcp -e 1540 -c 2 -a 0 -i 36 -k RTR 
- -t 1.227810462 -s 0 -d 4 -p tcp -e 1540 -c 2 -a 0 -i 36 -k RTR
h -t 1.227810462 -s 0 -d 4 -p tcp -e 1540 -c 2 -a 0 -i 36 -k RTR
+ -t 1.227810462 -s 0 -d 4 -p tcp -e 1540 -c 2 -a 0 -i 37 -k RTR 
- -t 1.227810462 -s 0 -d 4 -p tcp -e 1540 -c 2 -a 0 -i 37 -k RTR
h -t 1.227810462 -s 0 -d 4 -p tcp -e 1540 -c 2 -a 0 -i 37 -k RTR
r -t 1.229857218 -s 0 -d 0 -p ack -e 40 -c 2 -a 0 -i 28 -k AGT
+ -t 1.229857218 -s 0 -d -1 -p tcp -e 1540 -c 2 -a 0 -i 38 -k AGT 
- -t 1.229857218 -s 0 -d -1 -p tcp -e 1540 -c 2 -a 0 -i 38 -k AGT
h -t 1.229857218 -s 0 -d -1 -p tcp -e 1540 -c 2 -a 0 -i 38 -k AGT
+ -t 1.229857218 -s 0 -d -1 -p tcp -e 1540 -c 2 -a 0 -i 39 -k AGT 
- -t 1.229857218 -s 0 -d -1 -p tcp -e 1540 -c 2 -a 0 -i 39 -k AGT
h -t 1.229857218 -s 0 -d -1 -p tcp -e 1540 -c 2 -a 0 -i 39 -k AGT
+ -t 1.229857218 -s 0 -d 4 -p tcp -e 1540 -c 2 -a 0 -i 38 -k RTR 
- -t 1.229857218 -s 0 -d 4 -p tcp -e 1540 -c 2 -a 0 -i 38 -k RTR
h -t 1.229857218 -s 0 -d 4 -p tcp -e 1540 -c 2 -a 0 -i 38 -k RTR
+ -t 1.229857218 -s 0 -d 4 -p tcp -e 1540 -c 2 -a 0 -i 39 -k RTR 
- -t 1.229857218 -s 0 -d 4 -p tcp -e 1540 -c 2 -a 0 -i 39 -k RTR
h -t 1.229857218 -s 0 -d 4 -p tcp -e 1540 -c 2 -a 0 -i 39 -k RTR
r -t 1.231883974 -s 0 -d 0 -p ack -e 40 -c 2 -a 0 -i 31 -k AGT
+ -t 1.231883974 -s 0 -d -1 -p tcp -e 1540 -c 2 -a 0 -i 40 -k AGT 
- -t 1.231883974 -s 0 -d -1 -p tcp -e 1540 -c 2 -a 0 -i 40 -k AGT
h -t 1.231883974 -s 0 -d -1 -p tcp -e 1540 -c 2 -a 0 -i 40 -k AGT
+ -t 1.231883974 -s 0 -d -1 -p tcp -e 1540 -c 2 -a 0 -i 41 -k AGT 
- -t 1.231883974 -s 0 -d -1 -p tcp -e 1540 -c 2 -a 0 -i 41 -k AGT
h -t 1.231883974 -s 0 -d -1 -p tcp -e 1540 -c 2 -a 0 -i 41 -k AGT
+ -t 1.231883974 -s 0 -d 4 -p tcp -e 1540 -c 2 -a 0 -i 40 -k RTR 
- -t 1.231883974 -s 0 -d 4 -p tcp -e 1540 -c 2 -a 0 -i 40 -k RTR
h -t 1.231883974 -s 0 -d 4 -p tcp -e 1540 -c 2 -a 0 -i 40 -k RTR
+ -t 1.231883974 -s 0 -d 4 -p tcp -e 1540 -c 2 -a 0 -i 41 -k RTR 
- -t 1.231883974 -s 0 -d 4 -p tcp -e 1540 -c 2 -a 0 -i 41 -k RTR
h -t 1.231883974 -s 0 -d 4 -p tcp -e 1540 -c 2 -a 0 -i 41 -k RTR
r -t 1.245790042 -s 4 -d 4 -p tcp -e 1540 -c 2 -a 0 -i 24 -k AGT
+ -t 1.245790042 -s 4 -d -1 -p ack -e 40 -c 2 -a 0 -i 42 -k AGT 
- -t 1.245790042 -s 4 -d -1 -p ack -e 40 -c 2 -a 0 -i 42 -k AGT
h -t 1.245790042 -s 4 -d -1 -p ack -e 40 -c 2 -a 0 -i 42 -k AGT
+ -t 1.245790042 -s 4 -d 0 -p ack -e 40 -c 2 -a 0 -i 42 -k RTR 
- -t 1.245790042 -s 4 -d 0 -p ack -e 40 -c 2 -a 0 -i 42 -k RTR
h -t 1.245790042 -s 4 -d 0 -p ack -e 40 -c 2 -a 0 -i 42 -k RTR
r -t 1.259676799 -s 4 -d 4 -p tcp -e 1540 -c 2 -a 0 -i 25 -k AGT
+ -t 1.259676799 -s 4 -d -1 -p ack -e 40 -c 2 -a 0 -i 43 -k AGT 
- -t 1.259676799 -s 4 -d -1 -p ack -e 40 -c 2 -a 0 -i 43 -k AGT
h -t 1.259676799 -s 4 -d -1 -p ack -e 40 -c 2 -a 0 -i 43 -k AGT
+ -t 1.259676799 -s 4 -d 0 -p ack -e 40 -c 2 -a 0 -i 43 -k RTR 
- -t 1.259676799 -s 4 -d 0 -p ack -e 40 -c 2 -a 0 -i 43 -k RTR
h -t 1.259676799 -s 4 -d 0 -p ack -e 40 -c 2 -a 0 -i 43 -k RTR
r -t 1.273623556 -s 4 -d 4 -p tcp -e 1540 -c 2 -a 0 -i 29 -k AGT
+ -t 1.273623556 -s 4 -d -1 -p ack -e 40 -c 2 -a 0 -i 44 -k AGT 
- -t 1.273623556 -s 4 -d -1 -p ack -e 40 -c 2 -a 0 -i 44 -k AGT
h -t 1.273623556 -s 4 -d -1 -p ack -e 40 -c 2 -a 0 -i 44 -k AGT
+ -t 1.273623556 -s 4 -d 0 -p ack -e 40 -c 2 -a 0 -i 44 -k RTR 
- -t 1.273623556 -s 4 -d 0 -p ack -e 40 -c 2 -a 0 -i 44 -k RTR
h -t 1.273623556 -s 4 -d 0 -p ack -e 40 -c 2 -a 0 -i 44 -k RTR
r -t 1.275769625 -s 0 -d 0 -p ack -e 40 -c 2 -a 0 -i 34 -k AGT
+ -t 1.275769625 -s 0 -d -1 -p tcp -e 1540 -c 2 -a 0 -i 45 -k AGT 
- -t 1.275769625 -s 0 -d -1 -p tcp -e 1540 -c 2 -a 0 -i 45 -k AGT
h -t 1.275769625 -s 0 -d -1 -p tcp -e 1540 -c 2 -a 0 -i 45 -k AGT
+ -t 1.275769625 -s 0 -d -1 -p tcp -e 1540 -c 2 -a 0 -i 46 -k AGT 
- -t 1.275769625 -s 0 -d -1 -p tcp -e 1540 -c 2 -a 0 -i 46 -k AGT
h -t 1.275769625 -s 0 -d -1 -p tcp -e 1540 -c 2 -a 0 -i 46 -k AGT
+ -t 1.275769625 -s 0 -d 4 -p tcp -e 1540 -c 2 -a 0 -i 45 -k RTR 
- -t 1.275769625 -s 0 -d 4 -p tcp -e 1540 -c 2 -a 0 -i 45 -k RTR
h -t 1.275769625 -s 0 -d 4 -p tcp -e 1540 -c 2 -a 0 -i 45 -k RTR
+ -t 1.275769625 -s 0 -d 4 -p tcp -e 1540 -c 2 -a 0 -i 46 -k RTR 
- -t 1.275769625 -s 0 -d 4 -p tcp -e 1540 -c 2 -a 0 -i 46 -k RTR
h -t 1.275769625 -s 0 -d 4 -p tcp -e 1540 -c 2 -a 0 -i 46 -k RTR
r -t 1.289615693 -s 4 -d 4 -p tcp -e 1540 -c 2 -a 0 -i 30 -k AGT
+ -t 1.289615693 -s 4 -d -1 -p ack -e 40 -c 2 -a 0 -i 47 -k AGT 
- -t 1.289615693 -s 4 -d -1 -p ack -e 40 -c 2 -a 0 -i 47 -k AGT
h -t 1.289615693 -s 4 -d -1 -p ack -e 40 -c 2 -a 0 -i 47 -k AGT
+ -t 1.289615693 -s 4 -d 0 -p ack -e 40 -c 2 -a 0 -i 47 -k RTR 
- -t 1.289615693 -s 4 -d 0 -p ack -e 40 -c 2 -a 0 -i 47 -k RTR
h -t 1.289615693 -s 4 -d 0 -p ack -e 40 -c 2 -a 0 -i 47 -k RTR
r -t 1.303722452 -s 4 -d 4 -p tcp -e 1540 -c 2 -a 0 -i 32 -k AGT
+ -t 1.303722452 -s 4 -d -1 -p ack -e 40 -c 2 -a 0 -i 48 -k AGT 
- -t 1.303722452 -s 4 -d -1 -p ack -e 40 -c 2 -a 0 -i 48 -k AGT
h -t 1.303722452 -s 4 -d -1 -p ack -e 40 -c 2 -a 0 -i 48 -k AGT
+ -t 1.303722452 -s 4 -d 0 -p ack -e 40 -c 2 -a 0 -i 48 -k RTR 
- -t 1.303722452 -s 4 -d 0 -p ack -e 40 -c 2 -a 0 -i 48 -k RTR
h -t 1.303722452 -s 4 -d 0 -p ack -e 40 -c 2 -a 0 -i 48 -k RTR
r -t 1.317729211 -s 4 -d 4 -p tcp -e 1540 -c 2 -a 0 -i 33 -k AGT
+ -t 1.317729211 -s 4 -d -1 -p ack -e 40 -c 2 -a 0 -i 49 -k AGT 
- -t 1.317729211 -s 4 -d -1 -p ack -e 40 -c 2 -a 0 -i 49 -k AGT
h -t 1.317729211 -s 4 -d -1 -p ack -e 40 -c 2 -a 0 -i 49 -k AGT
+ -t 1.317729211 -s 4 -d 0 -p ack -e 40 -c 2 -a 0 -i 49 -k RTR 
- -t 1.317729211 -s 4 -d 0 -p ack -e 40 -c 2 -a 0 -i 49 -k RTR
h -t 1.317729211 -s 4 -d 0 -p ack -e 40 -c 2 -a 0 -i 49 -k RTR
r -t 1.319575281 -s 0 -d 0 -p ack -e 40 -c 2 -a 0 -i 35 -k AGT
+ -t 1.319575281 -s 0 -d -1 -p tcp -e 1540 -c 2 -a 0 -i 50 -k AGT 
- -t 1.319575281 -s 0 -d -1 -p tcp -e 1540 -c 2 -a 0 -i 50 -k AGT
h -t 1.319575281 -s 0 -d -1 -p tcp -e 1540 -c 2 -a 0 -i 50 -k AGT
+ -t 1.319575281 -s 0 -d -1 -p tcp -e 1540 -c 2 -a 0 -i 51 -k AGT 
- -t 1.319575281 -s 0 -d -1 -p tcp -e 1540 -c 2 -a 0 -i 51 -k AGT
h -t 1.319575281 -s 0 -d -1 -p tcp -e 1540 -c 2 -a 0 -i 51 -k AGT
+ -t 1.319575281 -s 0 -d 4 -p tcp -e 1540 -c 2 -a 0 -i 50 -k RTR 
- -t 1.319575281 -s 0 -d 4 -p tcp -e 1540 -c 2 -a 0 -i 50 -k RTR
h -t 1.319575281 -s 0 -d 4 -p tcp -e 1540 -c 2 -a 0 -i 50 -k RTR
+ -t 1.319575281 -s 0 -d 4 -p tcp -e 1540 -c 2 -a 0 -i 51 -k RTR 
- -t 1.319575281 -s 0 -d 4 -p tcp -e 1540 -c 2 -a 0 -i 51 -k RTR
h -t 1.319575281 -s 0 -d 4 -p tcp -e 1540 -c 2 -a 0 -i 51 -k RTR
r -t 1.333661351 -s 4 -d 4 -p tcp -e 1540 -c 2 -a 0 -i 36 -k AGT
+ -t 1.333661351 -s 4 -d -1 -p ack -e 40 -c 2 -a 0 -i 52 -k AGT 
- -t 1.333661351 -s 4 -d -1 -p ack -e 40 -c 2 -a 0 -i 52 -k AGT
h -t 1.333661351 -s 4 -d -1 -p ack -e 40 -c 2 -a 0 -i 52 -k AGT
+ -t 1.333661351 -s 4 -d 0 -p ack -e 40 -c 2 -a 0 -i 52 -k RTR 
- -t 1.333661351 -s 4 -d 0 -p ack -e 40 -c 2 -a 0 -i 52 -k RTR
h -t 1.333661351 -s 4 -d 0 -p ack -e 40 -c 2 -a 0 -i 52 -k RTR
r -t 1.347488111 -s 4 -d 4 -p tcp -e 1540 -c 2 -a 0 -i 37 -k AGT
+ -t 1.347488111 -s 4 -d -1 -p ack -e 40 -c 2 -a 0 -i 53 -k AGT 
- -t 1.347488111 -s 4 -d -1 -p ack -e 40 -c 2 -a 0 -i 53 -k AGT
h -t 1.347488111 -s 4 -d -1 -p ack -e 40 -c 2 -a 0 -i 53 -k AGT
+ -t 1.347488111 -s 4 -d 0 -p ack -e 40 -c 2 -a 0 -i 53 -k RTR 
- -t 1.347488111 -s 4 -d 0 -p ack -e 40 -c 2 -a 0 -i 53 -k RTR
h -t 1.347488111 -s 4 -d 0 -p ack -e 40 -c 2 -a 0 -i 53 -k RTR
r -t 1.362640873 -s 4 -d 4 -p tcp -e 1540 -c 2 -a 0 -i 38 -k AGT
+ -t 1.362640873 -s 4 -d -1 -p ack -e 40 -c 2 -a 0 -i 54 -k AGT 
- -t 1.362640873 -s 4 -d -1 -p ack -e 40 -c 2 -a 0 -i 54 -k AGT
h -t 1.362640873 -s 4 -d -1 -p ack -e 40 -c 2 -a 0 -i 54 -k AGT
+ -t 1.362640873 -s 4 -d 0 -p ack -e 40 -c 2 -a 0 -i 54 -k RTR 
- -t 1.362640873 -s 4 -d 0 -p ack -e 40 -c 2 -a 0 -i 54 -k RTR
h -t 1.362640873 -s 4 -d 0 -p ack -e 40 -c 2 -a 0 -i 54 -k RTR
r -t 1.376687634 -s 4 -d 4 -p tcp -e 1540 -c 2 -a 0 -i 39 -k AGT
+ -t 1.376687634 -s 4 -d -1 -p ack -e 40 -c 2 -a 0 -i 55 -k AGT 
- -t 1.376687634 -s 4 -d -1 -p ack -e 40 -c 2 -a 0 -i 55 -k AGT
h -t 1.376687634 -s 4 -d -1 -p ack -e 40 -c 2 -a 0 -i 55 -k AGT
+ -t 1.376687634 -s 4 -d 0 -p ack -e 40 -c 2 -a 0 -i 55 -k RTR 
- -t 1.376687634 -s 4 -d 0 -p ack -e 40 -c 2 -a 0 -i 55 -k RTR
h -t 1.376687634 -s 4 -d 0 -p ack -e 40 -c 2 -a 0 -i 55 -k RTR
r -t 1.390594396 -s 4 -d 4 -p tcp -e 1540 -c 2 -a 0 -i 40 -k AGT
+ -t 1.390594396 -s 4 -d -1 -p ack -e 40 -c 2 -a 0 -i 56 -k AGT 
- -t 1.390594396 -s 4 -d -1 -p ack -e 40 -c 2 -a 0 -i 56 -k AGT
h -t 1.390594396 -s 4 -d -1 -p ack -e 40 -c 2 -a 0 -i 56 -k AGT
+ -t 1.390594396 -s 4 -d 0 -p ack -e 40 -c 2 -a 0 -i 56 -k RTR 
- -t 1.390594396 -s 4 -d 0 -p ack -e 40 -c 2 -a 0 -i 56 -k RTR
h -t 1.390594396 -s 4 -d 0 -p ack -e 40 -c 2 -a 0 -i 56 -k RTR
r -t 1.392660469 -s 0 -d 0 -p ack -e 40 -c 2 -a 0 -i 42 -k AGT
+ -t 1.392660469 -s 0 -d -1 -p tcp -e 1540 -c 2 -a 0 -i 57 -k AGT 
- -t 1.392660469 -s 0 -d -1 -p tcp -e 1540 -c 2 -a 0 -i 57 -k AGT
h -t 1.392660469 -s 0 -d -1 -p tcp -e 1540 -c 2 -a 0 -i 57 -k AGT
+ -t 1.392660469 -s 0 -d -1 -p tcp -e 1540 -c 2 -a 0 -i 58 -k AGT 
- -t 1.392660469 -s 0 -d -1 -p tcp -e 1540 -c 2 -a 0 -i 58 -k AGT
h -t 1.392660469 -s 0 -d -1 -p tcp -e 1540 -c 2 -a 0 -i 58 -k AGT
+ -t 1.392660469 -s 0 -d 4 -p tcp -e 1540 -c 2 -a 0 -i 57 -k RTR 
- -t 1.392660469 -s 0 -d 4 -p tcp -e 1540 -c 2 -a 0 -i 57 -k RTR
h -t 1.392660469 -s 0 -d 4 -p tcp -e 1540 -c 2 -a 0 -i 57 -k RTR
+ -t 1.392660469 -s 0 -d 4 -p tcp -e 1540 -c 2 -a 0 -i 58 -k RTR 
- -t 1.392660469 -s 0 -d 4 -p tcp -e 1540 -c 2 -a 0 -i 58 -k RTR
h -t 1.392660469 -s 0 -d 4 -p tcp -e 1540 -c 2 -a 0 -i 58 -k RTR
r -t 1.394487231 -s 0 -d 0 -p ack -e 40 -c 2 -a 0 -i 43 -k AGT
+ -t 1.394487231 -s 0 -d -1 -p tcp -e 1540 -c 2 -a 0 -i 59 -k AGT 
- -t 1.394487231 -s 0 -d -1 -p tcp -e 1540 -c 2 -a 0 -i 59 -k AGT
h -t 1.394487231 -s 0 -d -1 -p tcp -e 1540 -c 2 -a 0 -i 59 -k AGT
+ -t 1.394487231 -s 0 -d -1 -p tcp -e 1540 -c 2 -a 0 -i 60 -k AGT 
- -t 1.394487231 -s 0 -d -1 -p tcp -e 1540 -c 2 -a 0 -i 60 -k AGT
h -t 1.394487231 -s 0 -d -1 -p tcp -e 1540 -c 2 -a 0 -i 60 -k AGT
+ -t 1.394487231 -s 0 -d 4 -p tcp -e 1540 -c 2 -a 0 -i 59 -k RTR 
- -t 1.394487231 -s 0 -d 4 -p tcp -e 1540 -c 2 -a 0 -i 59 -k RTR
h -t 1.394487231 -s 0 -d 4 -p tcp -e 1540 -c 2 -a 0 -i 59 -k RTR
+ -t 1.394487231 -s 0 -d 4 -p tcp -e 1540 -c 2 -a 0 -i 60 -k RTR 
- -t 1.394487231 -s 0 -d 4 -p tcp -e 1540 -c 2 -a 0 -i 60 -k RTR
h -t 1.394487231 -s 0 -d 4 -p tcp -e 1540 -c 2 -a 0 -i 60 -k RTR
r -t 1.408373304 -s 4 -d 4 -p tcp -e 1540 -c 2 -a 0 -i 41 -k AGT
+ -t 1.408373304 -s 4 -d -1 -p ack -e 40 -c 2 -a 0 -i 61 -k AGT 
- -t 1.408373304 -s 4 -d -1 -p ack -e 40 -c 2 -a 0 -i 61 -k AGT
h -t 1.408373304 -s 4 -d -1 -p ack -e 40 -c 2 -a 0 -i 61 -k AGT
+ -t 1.408373304 -s 4 -d 0 -p ack -e 40 -c 2 -a 0 -i 61 -k RTR 
- -t 1.408373304 -s 4 -d 0 -p ack -e 40 -c 2 -a 0 -i 61 -k RTR
h -t 1.408373304 -s 4 -d 0 -p ack -e 40 -c 2 -a 0 -i 61 -k RTR
r -t 1.410379376 -s 0 -d 0 -p ack -e 40 -c 2 -a 0 -i 44 -k AGT
+ -t 1.410379376 -s 0 -d -1 -p tcp -e 1540 -c 2 -a 0 -i 62 -k AGT 
- -t 1.410379376 -s 0 -d -1 -p tcp -e 1540 -c 2 -a 0 -i 62 -k AGT
h -t 1.410379376 -s 0 -d -1 -p tcp -e 1540 -c 2 -a 0 -i 62 -k AGT
+ -t 1.410379376 -s 0 -d -1 -p tcp -e 1540 -c 2 -a 0 -i 63 -k AGT 
- -t 1.410379376 -s 0 -d -1 -p tcp -e 1540 -c 2 -a 0 -i 63 -k AGT
h -t 1.410379376 -s 0 -d -1 -p tcp -e 1540 -c 2 -a 0 -i 63 -k AGT
+ -t 1.410379376 -s 0 -d 4 -p tcp -e 1540 -c 2 -a 0 -i 62 -k RTR 
- -t 1.410379376 -s 0 -d 4 -p tcp -e 1540 -c 2 -a 0 -i 62 -k RTR
h -t 1.410379376 -s 0 -d 4 -p tcp -e 1540 -c 2 -a 0 -i 62 -k RTR
+ -t 1.410379376 -s 0 -d 4 -p tcp -e 1540 -c 2 -a 0 -i 63 -k RTR 