M 1.00000 0 (131.00, 876.00, 0.00), (278.00, 666.00), 3.00
M 1.00000 1 (790.00, 483.00, 0.00), (829.00, 108.00), 5.00
M 1.00000 2 (523.00, 422.00, 0.00), (414.00, 186.00), 2.00
M 1.00000 3 (427.00, 460.00, 0.00), (442.00, 105.00), 5.00
M 1.00000 4 (213.00, 687.00, 0.00), (296.00, 537.00), 6.00
M 1.00000 5 (134.00, 944.00, 0.00), (922.00, 308.00), 2.00
M 1.00000 6 (983.00, 818.00, 0.00), (469.00, 893.00), 0.00
M 1.00000 7 (807.00, 160.00, 0.00), (222.00, 121.00), 5.00
M 1.00000 8 (618.00, 779.00, 0.00), (807.00, 839.00), 9.00
M 1.00000 9 (357.00, 668.00, 0.00), (618.00, 620.00), 5.00
s 1.000000000 _0_ AGT  --- 0 tcp 40 [0 0 0 0] ------- [0:0 4:0 32 0] [0 0] 0 0
r 1.000000000 _0_ RTR  --- 0 tcp 40 [0 0 0 0] ------- [0:0 4:0 32 0] [0 0] 0 0
s 1.000000000 _0_ RTR  --- 0 AODV 48 [0 0 0 0] ------- [0:255 -1:255 30 0] [0x2 1 1 [4 0] [0 4]] (REQUEST)
r 1.000988227 _5_ RTR  --- 0 AODV 48 [0 ffffffff 0 800] ------- [0:255 -1:255 30 0] [0x2 1 1 [4 0] [0 4]] (REQUEST)
r 1.000988687 _4_ RTR  --- 0 AODV 48 [0 ffffffff 0 800] ------- [0:255 -1:255 30 0] [0x2 1 1 [4 0] [0 4]] (REQUEST)
s 1.000988687 _4_ RTR  --- 0 AODV 44 [0 0 0 0] ------- [4:255 0:255 30 0] [0x4 1 [4 4] 10.000000] (REPLY)
s 1.001869454 _5_ RTR  --- 0 AODV 48 [0 ffffffff 0 800] ------- [5:255 -1:255 29 0] [0x2 2 1 [4 0] [0 4]] (REQUEST)
r 1.005771494 _0_ RTR  --- 0 AODV 44 [13a 0 4 800] ------- [4:255 0:255 30 0] [0x4 1 [4 4] 10.000000] (REPLY)
s 1.005771494 _0_ RTR  --- 0 tcp 40 [0 0 0 0] ------- [0:0 4:0 30 4] [0 0] 0 0
r 1.007637555 _4_ AGT  --- 0 tcp 40 [13a 4 0 800] ------- [0:0 4:0 30 4] [0 0] 1 0
s 1.007637555 _4_ AGT  --- 1 ack 40 [0 0 0 0] ------- [4:0 0:0 32 0] [0 0] 0 0
r 1.007637555 _4_ RTR  --- 1 ack 40 [0 0 0 0] ------- [4:0 0:0 32 0] [0 0] 0 0
s 1.007637555 _4_ RTR  --- 1 ack 40 [0 0 0 0] ------- [4:0 0:0 30 0] [0 0] 0 0
r 1.009783615 _0_ AGT  --- 1 ack 40 [13a 0 4 800] ------- [4:0 0:0 30 0] [0 0] 1 0
s 1.009783615 _0_ AGT  --- 2 tcp 1540 [0 0 0 0] ------- [0:0 4:0 32 0] [1 0] 0 0
r 1.009783615 _0_ RTR  --- 2 tcp 1540 [0 0 0 0] ------- [0:0 4:0 32 0] [1 0] 0 0
s 1.009783615 _0_ AGT  --- 3 tcp 1540 [0 0 0 0] ------- [0:0 4:0 32 0] [2 0] 0 0
r 1.009783615 _0_ RTR  --- 3 tcp 1540 [0 0 0 0] ------- [0:0 4:0 32 0] [2 0] 0 0
s 1.009783615 _0_ RTR  --- 2 tcp 1540 [0 0 0 0] ------- [0:0 4:0 30 4] [1 0] 0 0
s 1.009783615 _0_ RTR  --- 3 tcp 1540 [0 0 0 0] ------- [0:0 4:0 30 4] [2 0] 0 0
r 1.011046051 _0_ RTR  --- 0 AODV 48 [0 ffffffff 5 800] ------- [5:255 -1:255 29 0] [0x2 2 1 [4 0] [0 4]] (REQUEST)
r 1.024758112 _4_ AGT  --- 2 tcp 1540 [13a 4 0 800] ------- [0:0 4:0 30 4] [1 0] 1 0
s 1.024758112 _4_ AGT  --- 4 ack 40 [0 0 0 0] ------- [4:0 0:0 32 0] [1 0] 0 0
r 1.024758112 _4_ RTR  --- 4 ack 40 [0 0 0 0] ------- [4:0 0:0 32 0] [1 0] 0 0
s 1.024758112 _4_ RTR  --- 4 ack 40 [0 0 0 0] ------- [4:0 0:0 30 0] [1 0] 0 0
r 1.026744173 _0_ AGT  --- 4 ack 40 [13a 0 4 800] ------- [4:0 0:0 30 0] [1 0] 1 0
s 1.026744173 _0_ AGT  --- 5 tcp 1540 [0 0 0 0] ------- [0:0 4:0 32 0] [3 0] 0 0
r 1.026744173 _0_ RTR  --- 5 tcp 1540 [0 0 0 0] ------- [0:0 4:0 32 0] [3 0] 0 0
s 1.026744173 _0_ AGT  --- 6 tcp 1540 [0 0 0 0] ------- [0:0 4:0 32 0] [4 0] 0 0
r 1.026744173 _0_ RTR  --- 6 tcp 1540 [0 0 0 0] ------- [0:0 4:0 32 0] [4 0] 0 0
s 1.026744173 _0_ RTR  --- 5 tcp 1540 [0 0 0 0] ------- [0:0 4:0 30 4] [3 0] 0 0
s 1.026744173 _0_ RTR  --- 6 tcp 1540 [0 0 0 0] ------- [0:0 4:0 30 4] [4 0] 0 0
r 1.040770234 _4_ AGT  --- 3 tcp 1540 [13a 4 0 800] ------- [0:0 4:0 30 4] [2 0] 1 0
s 1.040770234 _4_ AGT  --- 7 ack 40 [0 0 0 0] ------- [4:0 0:0 32 0] [2 0] 0 0
r 1.040770234 _4_ RTR  --- 7 ack 40 [0 0 0 0] ------- [4:0 0:0 32 0] [2 0] 0 0
s 1.040770234 _4_ RTR  --- 7 ack 40 [0 0 0 0] ------- [4:0 0:0 30 0] [2 0] 0 0
r 1.042636296 _0_ AGT  --- 7 ack 40 [13a 0 4 800] ------- [4:0 0:0 30 0] [2 0] 1 0
s 1.042636296 _0_ AGT  --- 8 tcp 1540 [0 0 0 0] ------- [0:0 4:0 32 0] [5 0] 0 0
r 1.042636296 _0_ RTR  --- 8 tcp 1540 [0 0 0 0] ------- [0:0 4:0 32 0] [5 0] 0 0
s 1.042636296 _0_ AGT  --- 9 tcp 1540 [0 0 0 0] ------- [0:0 4:0 32 0] [6 0] 0 0
r 1.042636296 _0_ RTR  --- 9 tcp 1540 [0 0 0 0] ------- [0:0 4:0 32 0] [6 0] 0 0
s 1.042636296 _0_ RTR  --- 8 tcp 1540 [0 0 0 0] ------- [0:0 4:0 30 4] [5 0] 0 0
s 1.042636296 _0_ RTR  --- 9 tcp 1540 [0 0 0 0] ------- [0:0 4:0 30 4] [6 0] 0 0
r 1.056582357 _4_ AGT  --- 5 tcp 1540 [13a 4 0 800] ------- [0:0 4:0 30 4] [3 0] 1 0
s 1.056582357 _4_ AGT  --- 10 ack 40 [0 0 0 0] ------- [4:0 0:0 32 0] [3 0] 0 0
r 1.056582357 _4_ RTR  --- 10 ack 40 [0 0 0 0] ------- [4:0 0:0 32 0] [3 0] 0 0
s 1.056582357 _4_ RTR  --- 10 ack 40 [0 0 0 0] ------- [4:0 0:0 30 0] [3 0] 0 0
r 1.070749106 _4_ AGT  --- 6 tcp 1540 [13a 4 0 800] ------- [0:0 4:0 30 4] [4 0] 1 0
s 1.070749106 _4_ AGT  --- 11 ack 40 [0 0 0 0] ------- [4:0 0:0 32 0] [4 0] 0 0
r 1.070749106 _4_ RTR  --- 11 ack 40 [0 0 0 0] ------- [4:0 0:0 32 0] [4 0] 0 0
s 1.070749106 _4_ RTR  --- 11 ack 40 [0 0 0 0] ------- [4:0 0:0 30 0] [4 0] 0 0
r 1.072595169 _0_ AGT  --- 10 ack 40 [13a 0 4 800] ------- [4:0 0:0 30 0] [3 0] 1 0
s 1.072595169 _0_ AGT  --- 12 tcp 1540 [0 0 0 0] ------- [0:0 4:0 32 0] [7 0] 0 0
r 1.072595169 _0_ RTR  --- 12 tcp 1540 [0 0 0 0] ------- [0:0 4:0 32 0] [7 0] 0 0
s 1.072595169 _0_ AGT  --- 13 tcp 1540 [0 0 0 0] ------- [0:0 4:0 32 0] [8 0] 0 0
r 1.072595169 _0_ RTR  --- 13 tcp 1540 [0 0 0 0] ------- [0:0 4:0 32 0] [8 0] 0 0
s 1.072595169 _0_ RTR  --- 12 tcp 1540 [0 0 0 0] ------- [0:0 4:0 30 4] [7 0] 0 0
s 1.072595169 _0_ RTR  --- 13 tcp 1540 [0 0 0 0] ------- [0:0 4:0 30 4] [8 0] 0 0
r 1.074621919 _0_ AGT  --- 11 ack 40 [13a 0 4 800] ------- [4:0 0:0 30 0] [4 0] 1 0
s 1.074621919 _0_ AGT  --- 14 tcp 1540 [0 0 0 0] ------- [0:0 4:0 32 0] [9 0] 0 0
r 1.074621919 _0_ RTR  --- 14 tcp 1540 [0 0 0 0] ------- [0:0 4:0 32 0] [9 0] 0 0
s 1.074621919 _0_ AGT  --- 15 tcp 1540 [0 0 0 0] ------- [0:0 4:0 32 0] [10 0] 0 0
r 1.074621919 _0_ RTR  --- 15 tcp 1540 [0 0 0 0] ------- [0:0 4:0 32 0] [10 0] 0 0
s 1.074621919 _0_ RTR  --- 14 tcp 1540 [0 0 0 0] ------- [0:0 4:0 30 4] [9 0] 0 0
s 1.074621919 _0_ RTR  --- 15 tcp 1540 [0 0 0 0] ------- [0:0 4:0 30 4] [10 0] 0 0
r 1.088547981 _4_ AGT  --- 8 tcp 1540 [13a 4 0 800] ------- [0:0 4:0 30 4] [5 0] 1 0
s 1.088547981 _4_ AGT  --- 16 ack 40 [0 0 0 0] ------- [4:0 0:0 32 0] [5 0] 0 0
r 1.088547981 _4_ RTR  --- 16 ack 40 [0 0 0 0] ------- [4:0 0:0 32 0] [5 0] 0 0
s 1.088547981 _4_ RTR  --- 16 ack 40 [0 0 0 0] ------- [4:0 0:0 30 0] [5 0] 0 0
r 1.102394732 _4_ AGT  --- 9 tcp 1540 [13a 4 0 800] ------- [0:0 4:0 30 4] [6 0] 1 0
s 1.102394732 _4_ AGT  --- 17 ack 40 [0 0 0 0] ------- [4:0 0:0 32 0] [6 0] 0 0
r 1.102394732 _4_ RTR  --- 17 ack 40 [0 0 0 0] ------- [4:0 0:0 32 0] [6 0] 0 0
s 1.102394732 _4_ RTR  --- 17 ack 40 [0 0 0 0] ------- [4:0 0:0 30 0] [6 0] 0 0
r 1.104320795 _0_ AGT  --- 16 ack 40 [13a 0 4 800] ------- [4:0 0:0 30 0] [5 0] 1 0
s 1.104320795 _0_ AGT  --- 18 tcp 1540 [0 0 0 0] ------- [0:0 4:0 32 0] [11 0] 0 0
r 1.104320795 _0_ RTR  --- 18 tcp 1540 [0 0 0 0] ------- [0:0 4:0 32 0] [11 0] 0 0
s 1.104320795 _0_ AGT  --- 19 tcp 1540 [0 0 0 0] ------- [0:0 4:0 32 0] [12 0] 0 0
r 1.104320795 _0_ RTR  --- 19 tcp 1540 [0 0 0 0] ------- [0:0 4:0 32 0] [12 0] 0 0
s 1.104320795 _0_ RTR  --- 18 tcp 1540 [0 0 0 0] ------- [0:0 4:0 30 4] [11 0] 0 0
s 1.104320795 _0_ RTR  --- 19 tcp 1540 [0 0 0 0] ------- [0:0 4:0 30 4] [12 0] 0 0
r 1.118286859 _4_ AGT  --- 12 tcp 1540 [13a 4 0 800] ------- [0:0 4:0 30 4] [7 0] 1 0
s 1.118286859 _4_ AGT  --- 20 ack 40 [0 0 0 0] ------- [4:0 0:0 32 0] [7 0] 0 0
r 1.118286859 _4_ RTR  --- 20 ack 40 [0 0 0 0] ------- [4:0 0:0 32 0] [7 0] 0 0
s 1.118286859 _4_ RTR  --- 20 ack 40 [0 0 0 0] ------- [4:0 0:0 30 0] [7 0] 0 0
r 1.132293610 _4_ AGT  --- 13 tcp 1540 [13a 4 0 800] ------- [0:0 4:0 30 4] [8 0] 1 0
s 1.132293610 _4_ AGT  --- 21 ack 40 [0 0 0 0] ------- [4:0 0:0 32 0] [8 0] 0 0
r 1.132293610 _4_ RTR  --- 21 ack 40 [0 0 0 0] ------- [4:0 0:0 32 0] [8 0] 0 0
s 1.132293610 _4_ RTR  --- 21 ack 40 [0 0 0 0] ------- [4:0 0:0 30 0] [8 0] 0 0
r 1.134239675 _0_ AGT  --- 17 ack 40 [13a 0 4 800] ------- [4:0 0:0 30 0] [6 0] 1 0
s 1.134239675 _0_ AGT  --- 22 tcp 1540 [0 0 0 0] ------- [0:0 4:0 32 0] [13 0] 0 0
r 1.134239675 _0_ RTR  --- 22 tcp 1540 [0 0 0 0] ------- [0:0 4:0 32 0] [13 0] 0 0
s 1.134239675 _0_ AGT  --- 23 tcp 1540 [0 0 0 0] ------- [0:0 4:0 32 0] [14 0] 0 0
r 1.134239675 _0_ RTR  --- 23 tcp 1540 [0 0 0 0] ------- [0:0 4:0 32 0] [14 0] 0 0
s 1.134239675 _0_ RTR  --- 22 tcp 1540 [0 0 0 0] ------- [0:0 4:0 30 4] [13 0] 0 0
s 1.134239675 _0_ RTR  --- 23 tcp 1540 [0 0 0 0] ------- [0:0 4:0 30 4] [14 0] 0 0
r 1.136466427 _0_ AGT  --- 20 ack 40 [13a 0 4 800] ------- [4:0 0:0 30 0] [7 0] 1 0
s 1.136466427 _0_ AGT  --- 24 tcp 1540 [0 0 0 0] ------- [0:0 4:0 32 0] [15 0] 0 0
r 1.136466427 _0_ RTR  --- 24 tcp 1540 [0 0 0 0] ------- [0:0 4:0 32 0] [15 0] 0 0
s 1.136466427 _0_ AGT  --- 25 tcp 1540 [0 0 0 0] ------- [0:0 4:0 32 0] [16 0] 0 0
r 1.136466427 _0_ RTR  --- 25 tcp 1540 [0 0 0 0] ------- [0:0 4:0 32 0] [16 0] 0 0
s 1.136466427 _0_ RTR  --- 24 tcp 1540 [0 0 0 0] ------- [0:0 4:0 30 4] [15 0] 0 0
s 1.136466427 _0_ RTR  --- 25 tcp 1540 [0 0 0 0] ------- [0:0 4:0 30 4] [16 0] 0 0
r 1.150352491 _4_ AGT  --- 14 tcp 1540 [13a 4 0 800] ------- [0:0 4:0 30 4] [9 0] 1 0
s 1.150352491 _4_ AGT  --- 26 ack 40 [0 0 0 0] ------- [4:0 0:0 32 0] [9 0] 0 0
r 1.150352491 _4_ RTR  --- 26 ack 40 [0 0 0 0] ------- [4:0 0:0 32 0] [9 0] 0 0
s 1.150352491 _4_ RTR  --- 26 ack 40 [0 0 0 0] ------- [4:0 0:0 30 0] [9 0] 0 0
r 1.164539244 _4_ AGT  --- 15 tcp 1540 [13a 4 0 800] ------- [0:0 4:0 30 4] [10 0] 1 0
s 1.164539244 _4_ AGT  --- 27 ack 40 [0 0 0 0] ------- [4:0 0:0 32 0] [10 0] 0 0
r 1.164539244 _4_ RTR  --- 27 ack 40 [0 0 0 0] ------- [4:0 0:0 32 0] [10 0] 0 0
s 1.164539244 _4_ RTR  --- 27 ack 40 [0 0 0 0] ------- [4:0 0:0 30 0] [10 0] 0 0
r 1.178405998 _4_ AGT  --- 18 tcp 1540 [13a 4 0 800] ------- [0:0 4:0 30 4] [11 0] 1 0
s 1.178405998 _4_ AGT  --- 28 ack 40 [0 0 0 0] ------- [4:0 0:0 32 0] [11 0] 0 0
r 1.178405998 _4_ RTR  --- 28 ack 40 [0 0 0 0] ------- [4:0 0:0 32 0] [11 0] 0 0
s 1.178405998 _4_ RTR  --- 28 ack 40 [0 0 0 0] ------- [4:0 0:0 30 0] [11 0] 0 0
r 1.180312064 _0_ AGT  --- 21 ack 40 [13a 0 4 800] ------- [4:0 0:0 30 0] [8 0] 1 0
s 1.180312064 _0_ AGT  --- 29 tcp 1540 [0 0 0 0] ------- [0:0 4:0 32 0] [17 0] 0 0
r 1.180312064 _0_ RTR  --- 29 tcp 1540 [0 0 0 0] ------- [0:0 4:0 32 0] [17 0] 0 0
s 1.180312064 _0_ AGT  --- 30 tcp 1540 [0 0 0 0] ------- [0:0 4:0 32 0] [18 0] 0 0
r 1.180312064 _0_ RTR  --- 30 tcp 1540 [0 0 0 0] ------- [0:0 4:0 32 0] [18 0] 0 0
s 1.180312064 _0_ RTR  --- 29 tcp 1540 [0 0 0 0] ------- [0:0 4:0 30 4] [17 0] 0 0
s 1.180312064 _0_ RTR  --- 30 tcp 1540 [0 0 0 0] ------- [0:0 4:0 30 4] [18 0] 0 0
r 1.194358129 _4_ AGT  --- 19 tcp 1540 [13a 4 0 800] ------- [0:0 4:0 30 4] [12 0] 1 0
s 1.194358129 _4_ AGT  --- 31 ack 40 [0 0 0 0] ------- [4:0 0:0 32 0] [12 0] 0 0
r 1.194358129 _4_ RTR  --- 31 ack 40 [0 0 0 0] ------- [4:0 0:0 32 0] [12 0] 0 0
s 1.194358129 _4_ RTR  --- 31 ack 40 [0 0 0 0] ------- [4:0 0:0 30 0] [12 0] 0 0
r 1.198131573 _0_ AGT  --- 26 ack 40 [13a 0 4 800] ------- [4:0 0:0 30 0] [9 0] 1 0
s 1.198131573 _0_ AGT  --- 32 tcp 1540 [0 0 0 0] ------- [0:0 4:0 32 0] [19 0] 0 0
r 1.198131573 _0_ RTR  --- 32 tcp 1540 [0 0 0 0] ------- [0:0 4:0 32 0] [19 0] 0 0
s 1.198131573 _0_ AGT  --- 33 tcp 1540 [0 0 0 0] ------- [0:0 4:0 32 0] [20 0] 0 0
r 1.198131573 _0_ RTR  --- 33 tcp 1540 [0 0 0 0] ------- [0:0 4:0 32 0] [20 0] 0 0
s 1.198131573 _0_ RTR  --- 32 tcp 1540 [0 0 0 0] ------- [0:0 4:0 30 4] [19 0] 0 0
s 1.198131573 _0_ RTR  --- 33 tcp 1540 [0 0 0 0] ------- [0:0 4:0 30 4] [20 0] 0 0
r 1.212037639 _4_ AGT  --- 22 tcp 1540 [13a 4 0 800] ------- [0:0 4:0 30 4] [13 0] 1 0
s 1.212037639 _4_ AGT  --- 34 ack 40 [0 0 0 0] ------- [4:0 0:0 32 0] [13 0] 0 0
r 1.212037639 _4_ RTR  --- 34 ack 40 [0 0 0 0] ------- [4:0 0:0 32 0] [13 0] 0 0
s 1.212037639 _4_ RTR  --- 34 ack 40 [0 0 0 0] ------- [4:0 0:0 30 0] [13 0] 0 0
r 1.225964395 _4_ AGT  --- 23 tcp 1540 [13a 4 0 800] ------- [0:0 4:0 30 4] [14 0] 1 0
s 1.225964395 _4_ AGT  --- 35 ack 40 [0 0 0 0] ------- [4:0 0:0 32 0] [14 0] 0 0
r 1.225964395 _4_ RTR  --- 35 ack 40 [0 0 0 0] ------- [4:0 0:0 32 0] [14 0] 0 0
s 1.225964395 _4_ RTR  --- 35 ack 40 [0 0 0 0] ------- [4:0 0:0 30 0] [14 0] 0 0
r 1.227810462 _0_ AGT  --- 27 ack 40 [13a 0 4 800] ------- [4:0 0:0 30 0] [10 0] 1 0
s 1.227810462 _0_ AGT  --- 36 tcp 1540 [0 0 0 0] ------- [0:0 4:0 32 0] [21 0] 0 0
r 1.227810462 _0_ RTR  --- 36 tcp 1540 [0 0 0 0] ------- [0:0 4:0 32 0] [21 0] 0 0
s 1.227810462 _0_ AGT  --- 37 tcp 1540 [0 0 0 0] ------- [0:0 4:0 32 0] [22 0] 0 0
r 1.227810462 _0_ RTR  --- 37 tcp 1540 [0 0 0 0] ------- [0:0 4:0 32 0] [22 0] 0 0
s 1.227810462 _0_ RTR  --- 36 tcp 1540 [0 0 0 0] ------- [0:0 4:0 30 4] [21 0] 0 0
s 1.227810462 _0_ RTR  --- 37 tcp 1540 [0 0 0 0] ------- [0:0 4:0 30 4] [22 0] 0 0
r 1.229857218 _0_ AGT  --- 28 ack 40 [13a 0 4 800] ------- [4:0 0:0 30 0] [11 0] 1 0
s 1.229857218 _0_ AGT  --- 38 tcp 1540 [0 0 0 0] ------- [0:0 4:0 32 0] [23 0] 0 0
r 1.229857218 _0_ RTR  --- 38 tcp 1540 [0 0 0 0] ------- [0:0 4:0 32 0] [23 0] 0 0
s 1.229857218 _0_ AGT  --- 39 tcp 1540 [0 0 0 0] ------- [0:0 4:0 32 0] [24 0] 0 0
r 1.229857218 _0_ RTR  --- 39 tcp 1540 [0 0 0 0] ------- [0:0 4:0 32 0] [24 0] 0 0
s 1.229857218 _0_ RTR  --- 38 tcp 1540 [0 0 0 0] ------- [0:0 4:0 30 4] [23 0] 0 0
s 1.229857218 _0_ RTR  --- 39 tcp 1540 [0 0 0 0] ------- [0:0 4:0 30 4] [24 0] 0 0
r 1.231883974 _0_ AGT  --- 31 ack 40 [13a 0 4 800] ------- [4:0 0:0 30 0] [12 0] 1 0
s 1.231883974 _0_ AGT  --- 40 tcp 1540 [0 0 0 0] ------- [0:0 4:0 32 0] [25 0] 0 0
r 1.231883974 _0_ RTR  --- 40 tcp 1540 [0 0 0 0] ------- [0:0 4:0 32 0] [25 0] 0 0
s 1.231883974 _0_ AGT  --- 41 tcp 1540 [0 0 0 0] ------- [0:0 4:0 32 0] [26 0] 0 0
r 1.231883974 _0_ RTR  --- 41 tcp 1540 [0 0 0 0] ------- [0:0 4:0 32 0] [26 0] 0 0
s 1.231883974 _0_ RTR  --- 40 tcp 1540 [0 0 0 0] ------- [0:0 4:0 30 4] [25 0] 0 0
s 1.231883974 _0_ RTR  --- 41 tcp 1540 [0 0 0 0] ------- [0:0 4:0 30 4] [26 0] 0 0
r 1.245790042 _4_ AGT  --- 24 tcp 1540 [13a 4 0 800] ------- [0:0 4:0 30 4] [15 0] 1 0
s 1.245790042 _4_ AGT  --- 42 ack 40 [0 0 0 0] ------- [4:0 0:0 32 0] [15 0] 0 0
r 1.245790042 _4_ RTR  --- 42 ack 40 [0 0 0 0] ------- [4:0 0:0 32 0] [15 0] 0 0
s 1.245790042 _4_ RTR  --- 42 ack 40 [0 0 0 0] ------- [4:0 0:0 30 0] [15 0] 0 0
r 1.259676799 _4_ AGT  --- 25 tcp 1540 [13a 4 0 800] ------- [0:0 4:0 30 4] [16 0] 1 0
s 1.259676799 _4_ AGT  --- 43 ack 40 [0 0 0 0] ------- [4:0 0:0 32 0] [16 0] 0 0
r 1.259676799 _4_ RTR  --- 43 ack 40 [0 0 0 0] ------- [4:0 0:0 32 0] [16 0] 0 0
s 1.259676799 _4_ RTR  --- 43 ack 40 [0 0 0 0] ------- [4:0 0:0 30 0] [16 0] 0 0
r 1.273623556 _4_ AGT  --- 29 tcp 1540 [13a 4 0 800] ------- [0:0 4:0 30 4] [17 0] 1 0
s 1.273623556 _4_ AGT  --- 44 ack 40 [0 0 0 0] ------- [4:0 0:0 32 0] [17 0] 0 0
r 1.273623556 _4_ RTR  --- 44 ack 40 [0 0 0 0] ------- [4:0 0:0 32 0] [17 0] 0 0
s 1.273623556 _4_ RTR  --- 44 ack 40 [0 0 0 0] ------- [4:0 0:0 30 0] [17 0] 0 0
r 1.275769625 _0_ AGT  --- 34 ack 40 [13a 0 4 800] ------- [4:0 0:0 30 0] [13 0] 1 0
s 1.275769625 _0_ AGT  --- 45 tcp 1540 [0 0 0 0] ------- [0:0 4:0 32 0] [27 0] 0 0
r 1.275769625 _0_ RTR  --- 45 tcp 1540 [0 0 0 0] ------- [0:0 4:0 32 0] [27 0] 0 0
s 1.275769625 _0_ AGT  --- 46 tcp 1540 [0 0 0 0] ------- [0:0 4:0 32 0] [28 0] 0 0
r 1.275769625 _0_ RTR  --- 46 tcp 1540 [0 0 0 0] ------- [0:0 4:0 32 0] [28 0] 0 0
s 1.275769625 _0_ RTR  --- 45 tcp 1540 [0 0 0 0] ------- [0:0 4:0 30 4] [27 0] 0 0
s 1.275769625 _0_ RTR  --- 46 tcp 1540 [0 0 0 0] ------- [0:0 4:0 30 4] [28 0] 0 0
r 1.289615693 _4_ AGT  --- 30 tcp 1540 [13a 4 0 800] ------- [0:0 4:0 30 4] [18 0] 1 0
s 1.289615693 _4_ AGT  --- 47 ack 40 [0 0 0 0] ------- [4:0 0:0 32 0] [18 0] 0 0
r 1.289615693 _4_ RTR  --- 47 ack 40 [0 0 0 0] ------- [4:0 0:0 32 0] [18 0] 0 0
s 1.289615693 _4_ RTR  --- 47 ack 40 [0 0 0 0] ------- [4:0 0:0 30 0] [18 0] 0 0
r 1.303722452 _4_ AGT  --- 32 tcp 1540 [13a 4 0 800] ------- [0:0 4:0 30 4] [19 0] 1 0
s 1.303722452 _4_ AGT  --- 48 ack 40 [0 0 0 0] ------- [4:0 0:0 32 0] [19 0] 0 0
r 1.303722452 _4_ RTR  --- 48 ack 40 [0 0 0 0] ------- [4:0 0:0 32 0] [19 0] 0 0
s 1.303722452 _4_ RTR  --- 48 ack 40 [0 0 0 0] ------- [4:0 0:0 30 0] [19 0] 0 0
r 1.317729211 _4_ AGT  --- 33 tcp 1540 [13a 4 0 800] ------- [0:0 4:0 30 4] [20 0] 1 0
s 1.317729211 _4_ AGT  --- 49 ack 40 [0 0 0 0] ------- [4:0 0:0 32 0] [20 0] 0 0
r 1.317729211 _4_ RTR  --- 49 ack 40 [0 0 0 0] ------- [4:0 0:0 32 0] [20 0] 0 0
s 1.317729211 _4_ RTR  --- 49 ack 40 [0 0 0 0] ------- [4:0 0:0 30 0] [20 0] 0 0
r 1.319575281 _0_ AGT  --- 35 ack 40 [13a 0 4 800] ------- [4:0 0:0 30 0] [14 0] 1 0
s 1.319575281 _0_ AGT  --- 50 tcp 1540 [0 0 0 0] ------- [0:0 4:0 32 0] [29 0] 0 0
r 1.319575281 _0_ RTR  --- 50 tcp 1540 [0 0 0 0] ------- [0:0 4:0 32 0] [29 0] 0 0
s 1.319575281 _0_ AGT  --- 51 tcp 1540 [0 0 0 0] ------- [0:0 4:0 32 0] [30 0] 0 0
r 1.319575281 _0_ RTR  --- 51 tcp 1540 [0 0 0 0] ------- [0:0 4:0 32 0] [30 0] 0 0
s 1.319575281 _0_ RTR  --- 50 tcp 1540 [0 0 0 0] ------- [0:0 4:0 30 4] [29 0] 0 0
s 1.319575281 _0_ RTR  --- 51 tcp 1540 [0 0 0 0] ------- [0:0 4:0 30 4] [30 0] 0 0
r 1.333661351 _4_ AGT  --- 36 tcp 1540 [13a 4 0 800] ------- [0:0 4:0 30 4] [21 0] 1 0
s 1.333661351 _4_ AGT  --- 52 ack 40 [0 0 0 0] ------- [4:0 0:0 32 0] [21 0] 0 0
r 1.333661351 _4_ RTR  --- 52 ack 40 [0 0 0 0] ------- [4:0 0:0 32 0] [21 0] 0 0
s 1.333661351 _4_ RTR  --- 52 ack 40 [0 0 0 0] ------- [4:0 0:0 30 0] [21 0] 0 0
r 1.347488111 _4_ AGT  --- 37 tcp 1540 [13a 4 0 800] ------- [0:0 4:0 30 4] [22 0] 1 0
s 1.347488111 _4_ AGT  --- 53 ack 40 [0 0 0 0] ------- [4:0 0:0 32 0] [22 0] 0 0
r 1.347488111 _4_ RTR  --- 53 ack 40 [0 0 0 0] ------- [4:0 0:0 32 0] [22 0] 0 0
s 1.347488111 _4_ RTR  --- 53 ack 40 [0 0 0 0] ------- [4:0 0:0 30 0] [22 0] 0 0
r 1.362640873 _4_ AGT  --- 38 tcp 1540 [13a 4 0 800] ------- [0:0 4:0 30 4] [23 0] 1 0
s 1.362640873 _4_ AGT  --- 54 ack 40 [0 0 0 0] ------- [4:0 0:0 32 0] [23 0] 0 0
r 1.362640873 _4_ RTR  --- 54 ack 40 [0 0 0 0] ------- [4:0 0:0 32 0] [23 0] 0 0
s 1.362640873 _4_ RTR  --- 54 ack 40 [0 0 0 0] ------- [4:0 0:0 30 0] [23 0] 0 0
r 1.376687634 _4_ AGT  --- 39 tcp 1540 [13a 4 0 800] ------- [0:0 4:0 30 4] [24 0] 1 0
s 1.376687634 _4_ AGT  --- 55 ack 40 [0 0 0 0] ------- [4:0 0:0 32 0] [24 0] 0 0
r 1.376687634 _4_ RTR  --- 55 ack 40 [0 0 0 0] ------- [4:0 0:0 32 0] [24 0] 0 0
s 1.376687634 _4_ RTR  --- 55 ack 40 [0 0 0 0] ------- [4:0 0:0 30 0] [24 0] 0 0
r 1.390594396 _4_ AGT  --- 40 tcp 1540 [13a 4 0 800] ------- [0:0 4:0 30 4] [25 0] 1 0
s 1.390594396 _4_ AGT  --- 56 ack 40 [0 0 0 0] ------- [4:0 0:0 32 0] [25 0] 0 0
r 1.390594396 _4_ RTR  --- 56 ack 40 [0 0 0 0] ------- [4:0 0:0 32 0] [25 0] 0 0
s 1.390594396 _4_ RTR  --- 56 ack 40 [0 0 0 0] ------- [4:0 0:0 30 0] [25 0] 0 0
r 1.392660469 _0_ AGT  --- 42 ack 40 [13a 0 4 800] ------- [4:0 0:0 30 0] [15 0] 1 0
s 1.392660469 _0_ AGT  --- 57 tcp 1540 [0 0 0 0] ------- [0:0 4:0 32 0] [31 0] 0 0
r 1.392660469 _0_ RTR  --- 57 tcp 1540 [0 0 0 0] ------- [0:0 4:0 32 0] [31 0] 0 0
s 1.392660469 _0_ AGT  --- 58 tcp 1540 [0 0 0 0] ------- [0:0 4:0 32 0] [32 0] 0 0
r 1.392660469 _0_ RTR  --- 58 tcp 1540 [0 0 0 0] ------- [0:0 4:0 32 0] [32 0] 0 0
s 1.392660469 _0_ RTR  --- 57 tcp 1540 [0 0 0 0] ------- [0:0 4:0 30 4] [31 0] 0 0
s 1.392660469 _0_ RTR  --- 58 tcp 1540 [0 0 0 0] ------- [0:0 4:0 30 4] [32 0] 0 0
r 1.394487231 _0_ AGT  --- 43 ack 40 [13a 0 4 800] ------- [4:0 0:0 30 0] [16 0] 1 0
s 1.394487231 _0_ AGT  --- 59 tcp 1540 [0 0 0 0] ------- [0:0 4:0 32 0] [33 0] 0 0
r 1.394487231 _0_ RTR  --- 59 tcp 1540 [0 0 0 0] ------- [0:0 4:0 32 0] [33 0] 0 0
s 1.394487231 _0_ AGT  --- 60 tcp 1540 [0 0 0 0] ------- [0:0 4:0 32 0] [34 0] 0 0
r 1.394487231 _0_ RTR  --- 60 tcp 1540 [0 0 0 0] ------- [0:0 4:0 32 0] [34 0] 0 0
s 1.394487231 _0_ RTR  --- 59 tcp 1540 [0 0 0 0] ------- [0:0 4:0 30 4] [33 0] 0 0
s 1.394487231 _0_ RTR  --- 60 tcp 1540 [0 0 0 0] ------- [0:0 4:0 30 4] [34 0] 0 0
r 1.408373304 _4_ AGT  --- 41 tcp 1540 [13a 4 0 800] ------- [0:0 4:0 30 4] [26 0] 1 0
s 1.408373304 _4_ AGT  --- 61 ack 40 [0 0 0 0] ------- [4:0 0:0 32 0] [26 0] 0 0
r 1.408373304 _4_ RTR  --- 61 ack 40 [0 0 0 0] ------- [4:0 0:0 32 0] [26 0] 0 0
s 1.408373304 _4_ RTR  --- 61 ack 40 [0 0 0 0] ------- [4:0 0:0 30 0] [26 0] 0 0
r 1.410379376 _0_ AGT  --- 44 ack 40 [13a 0 4 800] ------- [4:0 0:0 30 0] [17 0] 1 0
s 1.410379376 _0_ AGT  --- 62 tcp 1540 [0 0 0 0] ------- [0:0 4:0 32 0] [35 0] 0 0
r 1.410379376 _0_ RTR  --- 62 tcp 1540 [0 0 0 0] ------- [0:0 4:0 32 0] [35 0] 0 0
s 1.410379376 _0_ AGT  --- 63 tcp 1540 [0 0 0 0] ------- [0:0 4:0 32 0] [36 0] 0 0
r 1.410379376 _0_ RTR  --- 63 tcp 1540 [0 0 0 0] ------- [0:0 4:0 32 0] [36 0] 0 0
s 1.410379376 _0_ RTR  --- 62 tcp 1540 [0 0 0 0] ------- [0:0 4:0 30 4] [35 0] 0 0
s 1.410379376 _0_ RTR  --- 63 tcp 1540 [0 0 0 0] ------- [0:0 4:0 30 4] [36 0] 0 0
r 1.424325449 _4_ AGT  --- 45 tcp 1540 [13a 4 0 800] ------- [0:0 4:0 30 4] [27 0] 1 0
s 1.424325449 _4_ AGT  --- 64 ack 40 [0 0 0 0] ------- [4:0 0:0 32 0] [27 0] 0 0
r 1.424325449 _4_ RTR  --- 64 ack 40 [0 0 0 0] ------- [4:0 0:0 32 0] [27 0] 0 0
s 1.424325449 _4_ RTR  --- 64 ack 40 [0 0 0 0] ------- [4:0 0:0 30 0] [27 0] 0 0
r 1.438172213 _4_ AGT  --- 46 tcp 1540 [13a 4 0 800] ------- [0:0 4:0 30 4] [28 0] 1 0
s 1.438172213 _4_ AGT  --- 65 ack 40 [0 0 0 0] ------- [4:0 0:0 32 0] [28 0] 0 0
r 1.438172213 _4_ RTR  --- 65 ack 40 [0 0 0 0] ------- [4:0 0:0 32 0] [28 0] 0 0
s 1.438172213 _4_ RTR  --- 65 ack 40 [0 0 0 0] ------- [4:0 0:0 30 0] [28 0] 0 0
r 1.440138287 _0_ AGT  --- 47 ack 40 [13a 0 4 800] ------- [4:0 0:0 30 0] [18 0] 1 0
s 1.440138287 _0_ AGT  --- 66 tcp 1540 [0 0 0 0] ------- [0:0 4:0 32 0] [37 0] 0 0
r 1.440138287 _0_ RTR  --- 66 tcp 1540 [0 0 0 0] ------- [0:0 4:0 32 0] [37 0] 0 0
s 1.440138287 _0_ AGT  --- 67 tcp 1540 [0 0 0 0] ------- [0:0 4:0 32 0] [38 0] 0 0
r 1.440138287 _0_ RTR  --- 67 tcp 1540 [0 0 0 0] ------- [0:0 4:0 32 0] [38 0] 0 0
s 1.440138287 _0_ RTR  --- 66 tcp 1540 [0 0 0 0] ------- [0:0 4:0 30 4] [37 0] 0 0
s 1.440138287 _0_ RTR  --- 67 tcp 1540 [0 0 0 0] ------- [0:0 4:0 30 4] [38 0] 0 0
r 1.442205051 _0_ AGT  --- 48 ack 40 [13a 0 4 800] ------- [4:0 0:0 30 0] [19 0] 1 0
s 1.442205051 _0_ AGT  --- 68 tcp 1540 [0 0 0 0] ------- [0:0 4:0 32 0] [39 0] 0 0
r 1.442205051 _0_ RTR  --- 68 tcp 1540 [0 0 0 0] ------- [0:0 4:0 32 0] [39 0] 0 0
s 1.442205051 _0_ RTR  --- 68 tcp 1540 [0 0 0 0] ------- [0:0 4:0 30 4] [39 0] 0 0
r 1.456131125 _4_ AGT  --- 50 tcp 1540 [13a 4 0 800] ------- [0:0 4:0 30 4] [29 0] 1 0
s 1.456131125 _4_ AGT  --- 69 ack 40 [0 0 0 0] ------- [4:0 0:0 32 0] [29 0] 0 0
r 1.456131125 _4_ RTR  --- 69 ack 40 [0 0 0 0] ------- [4:0 0:0 32 0] [29 0] 0 0
s 1.456131125 _4_ RTR  --- 69 ack 40 [0 0 0 0] ------- [4:0 0:0 30 0] [29 0] 0 0