n -t * -s 0  -x 787 -y 775 -Z 0 -z 25  -v circle -c black
n -t * -s 1  -x 930 -y 60 -Z 0 -z 25  -v circle -c black
n -t * -s 2  -x 445 -y 349 -Z 0 -z 25  -v circle -c black
n -t * -s 3  -x 789 -y 285 -Z 0 -z 25  -v circle -c black
n -t * -s 4  -x 858 -y 486 -Z 0 -z 25  -v circle -c black
n -t * -s 5  -x 299 -y 989 -Z 0 -z 25  -v circle -c black
n -t * -s 6  -x 394 -y 685 -Z 0 -z 25  -v circle -c black
n -t * -s 7  -x 55 -y 235 -Z 0 -z 25  -v circle -c black
n -t * -s 8  -x 620 -y 41 -Z 0 -z 25  -v circle -c black
n -t * -s 9  -x 779 -y 603 -Z 0 -z 25  -v circle -c black
n -t * -s 10  -x 366 -y 774 -Z 0 -z 25  -v circle -c black
n -t * -s 11  -x 989 -y 123 -Z 0 -z 25  -v circle -c black
n -t * -s 12  -x 286 -y 552 -Z 0 -z 25  -v circle -c black
n -t * -s 13  -x 287 -y 383 -Z 0 -z 25  -v circle -c black
n -t * -s 14  -x 855 -y 723 -Z 0 -z 25  -v circle -c black
n -t * -s 15  -x 809 -y 379 -Z 0 -z 25  -v circle -c black
n -t * -s 16  -x 971 -y 799 -Z 0 -z 25  -v circle -c black
n -t * -s 17  -x 600 -y 23 -Z 0 -z 25  -v circle -c black
n -t * -s 18  -x 990 -y 956 -Z 0 -z 25  -v circle -c black
n -t * -s 19  -x 288 -y 348 -Z 0 -z 25  -v circle -c black
n -t * -s 20  -x 556 -y 952 -Z 0 -z 25  -v circle -c black
n -t * -s 21  -x 909 -y 823 -Z 0 -z 25  -v circle -c black
n -t * -s 22  -x 121 -y 287 -Z 0 -z 25  -v circle -c black
n -t * -s 23  -x 231 -y 282 -Z 0 -z 25  -v circle -c black
n -t * -s 24  -x 593 -y 102 -Z 0 -z 25  -v circle -c black
V -t * -v 1.0a5 -a 0
W -t * -x 1000 -y 1000
A -t * -n 1 -p 0 -o 0x7fffffff -c 30 -a 1
A -t * -h 1 -m 1073741823 -s 0
n -t 1.000000 -s 0 -x 787.000000 -y 775.000000 -U -7.820086 -V -6.232676 -T 59.845885
n -t 1.000000 -s 1 -x 930.000000 -y 60.000000 -U -1.436982 -V 1.391072 -T 217.817584
n -t 1.000000 -s 2 -x 445.000000 -y 349.000000 -U 1.551124 -V 1.262543 -T 27.721833
n -t 1.000000 -s 3 -x 789.000000 -y 285.000000 -U 2.014256 -V 6.703937 -T 65.036411
n -t 1.000000 -s 4 -x 858.000000 -y 486.000000 -U -4.384711 -V -6.691361 -T 48.121753
n -t 1.000000 -s 5 -x 299.000000 -y 989.000000 -U 0.990499 -V -0.137521 -T 574.458005
n -t 1.000000 -s 6 -x 394.000000 -y 685.000000 -U 1.261994 -V -2.721649 -T 131.537912
n -t 1.000000 -s 7 -x 55.000000 -y 235.000000 -U 4.246232 -V 4.239047 -T 139.182235
n -t 1.000000 -s 8 -x 620.000000 -y 41.000000 -U -0.955198 -V 1.757156 -T 195.770912
n -t 1.000000 -s 9 -x 779.000000 -y 603.000000 -U -2.384191 -V -4.394955 -T 69.625283
n -t 1.000000 -s 10 -x 366.000000 -y 774.000000 -U 2.853567 -V 2.803062 -T 39.599558
n -t 1.000000 -s 11 -x 989.000000 -y 123.000000 -U -5.420645 -V 4.429064 -T 181.528207
n -t 1.000000 -s 12 -x 286.000000 -y 552.000000 -U 7.547570 -V -2.652205 -T 75.785986
n -t 1.000000 -s 13 -x 287.000000 -y 383.000000 -U 1.463464 -V -2.618830 -T 51.931579
n -t 1.000000 -s 14 -x 855.000000 -y 723.000000 -U -2.205192 -V -3.337234 -T 152.821178
n -t 1.000000 -s 15 -x 809.000000 -y 379.000000 -U 4.475501 -V -7.808322 -T 10.501617
n -t 1.000000 -s 16 -x 971.000000 -y 799.000000 -U -1.330719 -V -3.772159 -T 186.365400
n -t 1.000000 -s 17 -x 600.000000 -y 23.000000 -U -2.334148 -V 9.723773 -T 90.397013
n -t 1.000000 -s 18 -x 990.000000 -y 956.000000 -U -0.994860 -V 0.101258 -T 395.030379
n -t 1.000000 -s 19 -x 288.000000 -y 348.000000 -U 1.850289 -V -0.759229 -T 376.697823
n -t 1.000000 -s 20 -x 556.000000 -y 952.000000 -U 1.101500 -V -2.790466 -T 231.502580
n -t 1.000000 -s 21 -x 909.000000 -y 823.000000 -U 0.168746 -V -2.995250 -T 237.041956
n -t 1.000000 -s 22 -x 121.000000 -y 287.000000 -U 0.947874 -V 0.318647 -T 743.770126
n -t 1.000000 -s 23 -x 231.000000 -y 282.000000 -U 0.000000 -V -0.000000 -T 0.000000
n -t 1.000000 -s 24 -x 593.000000 -y 102.000000 -U -3.358463 -V 6.141720 -T 107.787395
+ -t 1.000000000 -s 0 -d -1 -p tcp -e 40 -c 2 -a 0 -i 0 -k AGT 
- -t 1.000000000 -s 0 -d -1 -p tcp -e 40 -c 2 -a 0 -i 0 -k AGT
h -t 1.000000000 -s 0 -d -1 -p tcp -e 40 -c 2 -a 0 -i 0 -k AGT
+ -t 1.000000000 -s 0 -d -1 -p AODV -e 48 -c 2 -a 0 -i 0 -k RTR 
- -t 1.000000000 -s 0 -d -1 -p AODV -e 48 -c 2 -a 0 -i 0 -k RTR
h -t 1.000000000 -s 0 -d -1 -p AODV -e 48 -c 2 -a 0 -i 0 -k RTR
r -t 1.000988285 -s 14 -d -1 -p AODV -e 48 -c 2 -a 0 -i 0 -k RTR
r -t 1.000988437 -s 21 -d -1 -p AODV -e 48 -c 2 -a 0 -i 0 -k RTR
r -t 1.000988574 -s 9 -d -1 -p AODV -e 48 -c 2 -a 0 -i 0 -k RTR
r -t 1.000988619 -s 16 -d -1 -p AODV -e 48 -c 2 -a 0 -i 0 -k RTR
+ -t 1.001869512 -s 14 -d -1 -p AODV -e 48 -c 2 -a 0 -i 0 -k RTR 
- -t 1.001869512 -s 14 -d -1 -p AODV -e 48 -c 2 -a 0 -i 0 -k RTR
h -t 1.001869512 -s 14 -d -1 -p AODV -e 48 -c 2 -a 0 -i 0 -k RTR
r -t 1.003017797 -s 0 -d -1 -p AODV -e 48 -c 2 -a 0 -i 0 -k RTR
r -t 1.003017891 -s 21 -d -1 -p AODV -e 48 -c 2 -a 0 -i 0 -k RTR
r -t 1.003017974 -s 16 -d -1 -p AODV -e 48 -c 2 -a 0 -i 0 -k RTR
r -t 1.003017986 -s 9 -d -1 -p AODV -e 48 -c 2 -a 0 -i 0 -k RTR
r -t 1.003018302 -s 4 -d -1 -p AODV -e 48 -c 2 -a 0 -i 0 -k RTR
+ -t 1.003018302 -s 4 -d 14 -p AODV -e 44 -c 2 -a 0 -i 0 -k RTR 
- -t 1.003018302 -s 4 -d 14 -p AODV -e 44 -c 2 -a 0 -i 0 -k RTR
h -t 1.003018302 -s 4 -d 14 -p AODV -e 44 -c 2 -a 0 -i 0 -k RTR
+ -t 1.004118236 -s 16 -d -1 -p AODV -e 48 -c 2 -a 0 -i 0 -k RTR 
- -t 1.004118236 -s 16 -d -1 -p AODV -e 48 -c 2 -a 0 -i 0 -k RTR
h -t 1.004118236 -s 16 -d -1 -p AODV -e 48 -c 2 -a 0 -i 0 -k RTR
+ -t 1.005400171 -s 21 -d -1 -p AODV -e 48 -c 2 -a 0 -i 0 -k RTR 
- -t 1.005400171 -s 21 -d -1 -p AODV -e 48 -c 2 -a 0 -i 0 -k RTR
h -t 1.005400171 -s 21 -d -1 -p AODV -e 48 -c 2 -a 0 -i 0 -k RTR
+ -t 1.007686833 -s 14 -d 0 -p AODV -e 44 -c 2 -a 0 -i 0 -k RTR 
- -t 1.007686833 -s 14 -d 0 -p AODV -e 44 -c 2 -a 0 -i 0 -k RTR
h -t 1.007686833 -s 14 -d 0 -p AODV -e 44 -c 2 -a 0 -i 0 -k RTR
+ -t 1.008980128 -s 9 -d -1 -p AODV -e 48 -c 2 -a 0 -i 0 -k RTR 
- -t 1.008980128 -s 9 -d -1 -p AODV -e 48 -c 2 -a 0 -i 0 -k RTR
h -t 1.008980128 -s 9 -d -1 -p AODV -e 48 -c 2 -a 0 -i 0 -k RTR
r -t 1.008989374 -s 21 -d -1 -p AODV -e 48 -c 2 -a 0 -i 0 -k RTR
r -t 1.008989614 -s 14 -d -1 -p AODV -e 48 -c 2 -a 0 -i 0 -k RTR
r -t 1.008989679 -s 18 -d -1 -p AODV -e 48 -c 2 -a 0 -i 0 -k RTR
r -t 1.008989771 -s 0 -d -1 -p AODV -e 48 -c 2 -a 0 -i 0 -k RTR
+ -t 1.013226247 -s 18 -d -1 -p AODV -e 48 -c 2 -a 0 -i 0 -k RTR 
- -t 1.013226247 -s 18 -d -1 -p AODV -e 48 -c 2 -a 0 -i 0 -k RTR
h -t 1.013226247 -s 18 -d -1 -p AODV -e 48 -c 2 -a 0 -i 0 -k RTR
+ -t 1.013404613 -s 0 -d 14 -p tcp -e 40 -c 2 -a 0 -i 0 -k RTR 
- -t 1.013404613 -s 0 -d 14 -p tcp -e 40 -c 2 -a 0 -i 0 -k RTR
h -t 1.013404613 -s 0 -d 14 -p tcp -e 40 -c 2 -a 0 -i 0 -k RTR
r -t 1.014717272 -s 16 -d -1 -p AODV -e 48 -c 2 -a 0 -i 0 -k RTR
r -t 1.014717429 -s 14 -d -1 -p AODV -e 48 -c 2 -a 0 -i 0 -k RTR
r -t 1.014717487 -s 0 -d -1 -p AODV -e 48 -c 2 -a 0 -i 0 -k RTR
r -t 1.014717569 -s 18 -d -1 -p AODV -e 48 -c 2 -a 0 -i 0 -k RTR
+ -t 1.016308344 -s 14 -d 4 -p tcp -e 40 -c 2 -a 0 -i 0 -k RTR 
- -t 1.016308344 -s 14 -d 4 -p tcp -e 40 -c 2 -a 0 -i 0 -k RTR
h -t 1.016308344 -s 14 -d 4 -p tcp -e 40 -c 2 -a 0 -i 0 -k RTR
r -t 1.017561288 -s 4 -d -1 -p AODV -e 48 -c 2 -a 0 -i 0 -k RTR
r -t 1.017561291 -s 14 -d -1 -p AODV -e 48 -c 2 -a 0 -i 0 -k RTR
r -t 1.017561391 -s 0 -d -1 -p AODV -e 48 -c 2 -a 0 -i 0 -k RTR
r -t 1.017561571 -s 15 -d -1 -p AODV -e 48 -c 2 -a 0 -i 0 -k RTR
r -t 1.019473662 -s 4 -d 4 -p tcp -e 40 -c 2 -a 0 -i 0 -k AGT
+ -t 1.019473662 -s 4 -d -1 -p ack -e 40 -c 2 -a 0 -i 1 -k AGT 
- -t 1.019473662 -s 4 -d -1 -p ack -e 40 -c 2 -a 0 -i 1 -k AGT
h -t 1.019473662 -s 4 -d -1 -p ack -e 40 -c 2 -a 0 -i 1 -k AGT
+ -t 1.019473662 -s 4 -d 14 -p ack -e 40 -c 2 -a 0 -i 1 -k RTR 
- -t 1.019473662 -s 4 -d 14 -p ack -e 40 -c 2 -a 0 -i 1 -k RTR
h -t 1.019473662 -s 4 -d 14 -p ack -e 40 -c 2 -a 0 -i 1 -k RTR
r -t 1.021171809 -s 21 -d -1 -p AODV -e 48 -c 2 -a 0 -i 0 -k RTR
r -t 1.021171817 -s 16 -d -1 -p AODV -e 48 -c 2 -a 0 -i 0 -k RTR
+ -t 1.023109288 -s 14 -d 0 -p ack -e 40 -c 2 -a 0 -i 1 -k RTR 
- -t 1.023109288 -s 14 -d 0 -p ack -e 40 -c 2 -a 0 -i 1 -k RTR
h -t 1.023109288 -s 14 -d 0 -p ack -e 40 -c 2 -a 0 -i 1 -k RTR
r -t 1.025234145 -s 0 -d 0 -p ack -e 40 -c 2 -a 0 -i 1 -k AGT
+ -t 1.025234145 -s 0 -d -1 -p tcp -e 1540 -c 2 -a 0 -i 2 -k AGT 
- -t 1.025234145 -s 0 -d -1 -p tcp -e 1540 -c 2 -a 0 -i 2 -k AGT
h -t 1.025234145 -s 0 -d -1 -p tcp -e 1540 -c 2 -a 0 -i 2 -k AGT
+ -t 1.025234145 -s 0 -d -1 -p tcp -e 1540 -c 2 -a 0 -i 3 -k AGT 
- -t 1.025234145 -s 0 -d -1 -p tcp -e 1540 -c 2 -a 0 -i 3 -k AGT
h -t 1.025234145 -s 0 -d -1 -p tcp -e 1540 -c 2 -a 0 -i 3 -k AGT
+ -t 1.025234145 -s 0 -d 14 -p tcp -e 1540 -c 2 -a 0 -i 2 -k RTR 
- -t 1.025234145 -s 0 -d 14 -p tcp -e 1540 -c 2 -a 0 -i 2 -k RTR
h -t 1.025234145 -s 0 -d 14 -p tcp -e 1540 -c 2 -a 0 -i 2 -k RTR
+ -t 1.025234145 -s 0 -d 14 -p tcp -e 1540 -c 2 -a 0 -i 3 -k RTR 
- -t 1.025234145 -s 0 -d 14 -p tcp -e 1540 -c 2 -a 0 -i 3 -k RTR
h -t 1.025234145 -s 0 -d 14 -p tcp -e 1540 -c 2 -a 0 -i 3 -k RTR
+ -t 1.025959823 -s 15 -d -1 -p AODV -e 48 -c 2 -a 0 -i 0 -k RTR 
- -t 1.025959823 -s 15 -d -1 -p AODV -e 48 -c 2 -a 0 -i 0 -k RTR
h -t 1.025959823 -s 15 -d -1 -p AODV -e 48 -c 2 -a 0 -i 0 -k RTR
+ -t 1.039199002 -s 14 -d 4 -p tcp -e 1540 -c 2 -a 0 -i 2 -k RTR 
- -t 1.039199002 -s 14 -d 4 -p tcp -e 1540 -c 2 -a 0 -i 2 -k RTR
h -t 1.039199002 -s 14 -d 4 -p tcp -e 1540 -c 2 -a 0 -i 2 -k RTR
+ -t 1.053124144 -s 14 -d 4 -p tcp -e 1540 -c 2 -a 0 -i 3 -k RTR 
- -t 1.053124144 -s 14 -d 4 -p tcp -e 1540 -c 2 -a 0 -i 3 -k RTR
h -t 1.053124144 -s 14 -d 4 -p tcp -e 1540 -c 2 -a 0 -i 3 -k RTR
r -t 1.067050516 -s 4 -d 4 -p tcp -e 1540 -c 2 -a 0 -i 2 -k AGT
+ -t 1.067050516 -s 4 -d -1 -p ack -e 40 -c 2 -a 0 -i 4 -k AGT 
- -t 1.067050516 -s 4 -d -1 -p ack -e 40 -c 2 -a 0 -i 4 -k AGT
h -t 1.067050516 -s 4 -d -1 -p ack -e 40 -c 2 -a 0 -i 4 -k AGT
+ -t 1.067050516 -s 4 -d 14 -p ack -e 40 -c 2 -a 0 -i 4 -k RTR 
- -t 1.067050516 -s 4 -d 14 -p ack -e 40 -c 2 -a 0 -i 4 -k RTR
h -t 1.067050516 -s 4 -d 14 -p ack -e 40 -c 2 -a 0 -i 4 -k RTR
r -t 1.081077680 -s 4 -d 4 -p tcp -e 1540 -c 2 -a 0 -i 3 -k AGT
+ -t 1.081077680 -s 4 -d -1 -p ack -e 40 -c 2 -a 0 -i 5 -k AGT 
- -t 1.081077680 -s 4 -d -1 -p ack -e 40 -c 2 -a 0 -i 5 -k AGT
h -t 1.081077680 -s 4 -d -1 -p ack -e 40 -c 2 -a 0 -i 5 -k AGT
+ -t 1.081077680 -s 4 -d 14 -p ack -e 40 -c 2 -a 0 -i 5 -k RTR 
- -t 1.081077680 -s 4 -d 14 -p ack -e 40 -c 2 -a 0 -i 5 -k RTR
h -t 1.081077680 -s 4 -d 14 -p ack -e 40 -c 2 -a 0 -i 5 -k RTR
+ -t 1.082924053 -s 14 -d 0 -p ack -e 40 -c 2 -a 0 -i 4 -k RTR 
- -t 1.082924053 -s 14 -d 0 -p ack -e 40 -c 2 -a 0 -i 4 -k RTR
h -t 1.082924053 -s 14 -d 0 -p ack -e 40 -c 2 -a 0 -i 4 -k RTR
+ -t 1.084811217 -s 14 -d 0 -p ack -e 40 -c 2 -a 0 -i 5 -k RTR 
- -t 1.084811217 -s 14 -d 0 -p ack -e 40 -c 2 -a 0 -i 5 -k RTR
h -t 1.084811217 -s 14 -d 0 -p ack -e 40 -c 2 -a 0 -i 5 -k RTR
r -t 1.087136075 -s 0 -d 0 -p ack -e 40 -c 2 -a 0 -i 4 -k AGT
+ -t 1.087136075 -s 0 -d -1 -p tcp -e 1540 -c 2 -a 0 -i 6 -k AGT 
- -t 1.087136075 -s 0 -d -1 -p tcp -e 1540 -c 2 -a 0 -i 6 -k AGT
h -t 1.087136075 -s 0 -d -1 -p tcp -e 1540 -c 2 -a 0 -i 6 -k AGT
+ -t 1.087136075 -s 0 -d -1 -p tcp -e 1540 -c 2 -a 0 -i 7 -k AGT 
- -t 1.087136075 -s 0 -d -1 -p tcp -e 1540 -c 2 -a 0 -i 7 -k AGT
h -t 1.087136075 -s 0 -d -1 -p tcp -e 1540 -c 2 -a 0 -i 7 -k AGT
+ -t 1.087136075 -s 0 -d 14 -p tcp -e 1540 -c 2 -a 0 -i 6 -k RTR 
- -t 1.087136075 -s 0 -d 14 -p tcp -e 1540 -c 2 -a 0 -i 6 -k RTR
h -t 1.087136075 -s 0 -d 14 -p tcp -e 1540 -c 2 -a 0 -i 6 -k RTR
+ -t 1.087136075 -s 0 -d 14 -p tcp -e 1540 -c 2 -a 0 -i 7 -k RTR 
- -t 1.087136075 -s 0 -d 14 -p tcp -e 1540 -c 2 -a 0 -i 7 -k RTR
h -t 1.087136075 -s 0 -d 14 -p tcp -e 1540 -c 2 -a 0 -i 7 -k RTR
+ -t 1.101300933 -s 14 -d 4 -p tcp -e 1540 -c 2 -a 0 -i 6 -k RTR 
- -t 1.101300933 -s 14 -d 4 -p tcp -e 1540 -c 2 -a 0 -i 6 -k RTR
h -t 1.101300933 -s 14 -d 4 -p tcp -e 1540 -c 2 -a 0 -i 6 -k RTR
r -t 1.103285792 -s 0 -d 0 -p ack -e 40 -c 2 -a 0 -i 5 -k AGT
+ -t 1.103285792 -s 0 -d -1 -p tcp -e 1540 -c 2 -a 0 -i 8 -k AGT 
- -t 1.103285792 -s 0 -d -1 -p tcp -e 1540 -c 2 -a 0 -i 8 -k AGT
h -t 1.103285792 -s 0 -d -1 -p tcp -e 1540 -c 2 -a 0 -i 8 -k AGT
+ -t 1.103285792 -s 0 -d -1 -p tcp -e 1540 -c 2 -a 0 -i 9 -k AGT 
- -t 1.103285792 -s 0 -d -1 -p tcp -e 1540 -c 2 -a 0 -i 9 -k AGT
h -t 1.103285792 -s 0 -d -1 -p tcp -e 1540 -c 2 -a 0 -i 9 -k AGT
+ -t 1.103285792 -s 0 -d 14 -p tcp -e 1540 -c 2 -a 0 -i 8 -k RTR 
- -t 1.103285792 -s 0 -d 14 -p tcp -e 1540 -c 2 -a 0 -i 8 -k RTR
h -t 1.103285792 -s 0 -d 14 -p tcp -e 1540 -c 2 -a 0 -i 8 -k RTR
+ -t 1.103285792 -s 0 -d 14 -p tcp -e 1540 -c 2 -a 0 -i 9 -k RTR 
- -t 1.103285792 -s 0 -d 14 -p tcp -e 1540 -c 2 -a 0 -i 9 -k RTR
h -t 1.103285792 -s 0 -d 14 -p tcp -e 1540 -c 2 -a 0 -i 9 -k RTR
+ -t 1.117230651 -s 14 -d 4 -p tcp -e 1540 -c 2 -a 0 -i 7 -k RTR 
- -t 1.117230651 -s 14 -d 4 -p tcp -e 1540 -c 2 -a 0 -i 7 -k RTR
h -t 1.117230651 -s 14 -d 4 -p tcp -e 1540 -c 2 -a 0 -i 7 -k RTR
r -t 1.131117025 -s 4 -d 4 -p tcp -e 1540 -c 2 -a 0 -i 6 -k AGT
+ -t 1.131117025 -s 4 -d -1 -p ack -e 40 -c 2 -a 0 -i 10 -k AGT 
- -t 1.131117025 -s 4 -d -1 -p ack -e 40 -c 2 -a 0 -i 10 -k AGT
h -t 1.131117025 -s 4 -d -1 -p ack -e 40 -c 2 -a 0 -i 10 -k AGT
+ -t 1.131117025 -s 4 -d 14 -p ack -e 40 -c 2 -a 0 -i 10 -k RTR 
- -t 1.131117025 -s 4 -d 14 -p ack -e 40 -c 2 -a 0 -i 10 -k RTR
h -t 1.131117025 -s 4 -d 14 -p ack -e 40 -c 2 -a 0 -i 10 -k RTR
r -t 1.144944191 -s 4 -d 4 -p tcp -e 1540 -c 2 -a 0 -i 7 -k AGT
+ -t 1.144944191 -s 4 -d -1 -p ack -e 40 -c 2 -a 0 -i 11 -k AGT 
- -t 1.144944191 -s 4 -d -1 -p ack -e 40 -c 2 -a 0 -i 11 -k AGT
h -t 1.144944191 -s 4 -d -1 -p ack -e 40 -c 2 -a 0 -i 11 -k AGT
+ -t 1.144944191 -s 4 -d 14 -p ack -e 40 -c 2 -a 0 -i 11 -k RTR 
- -t 1.144944191 -s 4 -d 14 -p ack -e 40 -c 2 -a 0 -i 11 -k RTR
h -t 1.144944191 -s 4 -d 14 -p ack -e 40 -c 2 -a 0 -i 11 -k RTR
r -t 1.146226872 -s 3 -d -1 -p AODV -e 48 -c 2 -a 0 -i 0 -k RTR
r -t 1.146226949 -s 4 -d -1 -p AODV -e 48 -c 2 -a 0 -i 0 -k RTR
r -t 1.146227314 -s 9 -d -1 -p AODV -e 48 -c 2 -a 0 -i 0 -k RTR
+ -t 1.148159324 -s 14 -d 0 -p ack -e 40 -c 2 -a 0 -i 10 -k RTR 
- -t 1.148159324 -s 14 -d 0 -p ack -e 40 -c 2 -a 0 -i 10 -k RTR
h -t 1.148159324 -s 14 -d 0 -p ack -e 40 -c 2 -a 0 -i 10 -k RTR
r -t 1.150104184 -s 0 -d 0 -p ack -e 40 -c 2 -a 0 -i 10 -k AGT
+ -t 1.150104184 -s 0 -d -1 -p tcp -e 1540 -c 2 -a 0 -i 12 -k AGT 
- -t 1.150104184 -s 0 -d -1 -p tcp -e 1540 -c 2 -a 0 -i 12 -k AGT
h -t 1.150104184 -s 0 -d -1 -p tcp -e 1540 -c 2 -a 0 -i 12 -k AGT
+ -t 1.150104184 -s 0 -d -1 -p tcp -e 1540 -c 2 -a 0 -i 13 -k AGT 
- -t 1.150104184 -s 0 -d -1 -p tcp -e 1540 -c 2 -a 0 -i 13 -k AGT
h -t 1.150104184 -s 0 -d -1 -p tcp -e 1540 -c 2 -a 0 -i 13 -k AGT
+ -t 1.150104184 -s 0 -d 14 -p tcp -e 1540 -c 2 -a 0 -i 12 -k RTR 
- -t 1.150104184 -s 0 -d 14 -p tcp -e 1540 -c 2 -a 0 -i 12 -k RTR
h -t 1.150104184 -s 0 -d 14 -p tcp -e 1540 -c 2 -a 0 -i 12 -k RTR
+ -t 1.150104184 -s 0 -d 14 -p tcp -e 1540 -c 2 -a 0 -i 13 -k RTR 
- -t 1.150104184 -s 0 -d 14 -p tcp -e 1540 -c 2 -a 0 -i 13 -k RTR
h -t 1.150104184 -s 0 -d 14 -p tcp -e 1540 -c 2 -a 0 -i 13 -k RTR
+ -t 1.151775269 -s 3 -d -1 -p AODV -e 48 -c 2 -a 0 -i 0 -k RTR 
- -t 1.151775269 -s 3 -d -1 -p AODV -e 48 -c 2 -a 0 -i 0 -k RTR
h -t 1.151775269 -s 3 -d -1 -p AODV -e 48 -c 2 -a 0 -i 0 -k RTR
+ -t 1.164049044 -s 14 -d 4 -p tcp -e 1540 -c 2 -a 0 -i 8 -k RTR 
- -t 1.164049044 -s 14 -d 4 -p tcp -e 1540 -c 2 -a 0 -i 8 -k RTR
h -t 1.164049044 -s 14 -d 4 -p tcp -e 1540 -c 2 -a 0 -i 8 -k RTR
r -t 1.177875420 -s 4 -d 4 -p tcp -e 1540 -c 2 -a 0 -i 8 -k AGT
+ -t 1.177875420 -s 4 -d -1 -p ack -e 40 -c 2 -a 0 -i 14 -k AGT 
- -t 1.177875420 -s 4 -d -1 -p ack -e 40 -c 2 -a 0 -i 14 -k AGT
h -t 1.177875420 -s 4 -d -1 -p ack -e 40 -c 2 -a 0 -i 14 -k AGT
+ -t 1.177875420 -s 4 -d 14 -p ack -e 40 -c 2 -a 0 -i 14 -k RTR 
- -t 1.177875420 -s 4 -d 14 -p ack -e 40 -c 2 -a 0 -i 14 -k RTR
h -t 1.177875420 -s 4 -d 14 -p ack -e 40 -c 2 -a 0 -i 14 -k RTR
+ -t 1.179801796 -s 14 -d 0 -p ack -e 40 -c 2 -a 0 -i 11 -k RTR 
- -t 1.179801796 -s 14 -d 0 -p ack -e 40 -c 2 -a 0 -i 11 -k RTR
h -t 1.179801796 -s 14 -d 0 -p ack -e 40 -c 2 -a 0 -i 11 -k RTR
r -t 1.181826657 -s 0 -d 0 -p ack -e 40 -c 2 -a 0 -i 11 -k AGT
+ -t 1.181826657 -s 0 -d -1 -p tcp -e 1540 -c 2 -a 0 -i 15 -k AGT 
- -t 1.181826657 -s 0 -d -1 -p tcp -e 1540 -c 2 -a 0 -i 15 -k AGT
h -t 1.181826657 -s 0 -d -1 -p tcp -e 1540 -c 2 -a 0 -i 15 -k AGT
+ -t 1.181826657 -s 0 -d -1 -p tcp -e 1540 -c 2 -a 0 -i 16 -k AGT 
- -t 1.181826657 -s 0 -d -1 -p tcp -e 1540 -c 2 -a 0 -i 16 -k AGT
h -t 1.181826657 -s 0 -d -1 -p tcp -e 1540 -c 2 -a 0 -i 16 -k AGT
+ -t 1.181826657 -s 0 -d 14 -p tcp -e 1540 -c 2 -a 0 -i 15 -k RTR 
- -t 1.181826657 -s 0 -d 14 -p tcp -e 1540 -c 2 -a 0 -i 15 -k RTR
h -t 1.181826657 -s 0 -d 14 -p tcp -e 1540 -c 2 -a 0 -i 15 -k RTR
+ -t 1.181826657 -s 0 -d 14 -p tcp -e 1540 -c 2 -a 0 -i 16 -k RTR 
- -t 1.181826657 -s 0 -d 14 -p tcp -e 1540 -c 2 -a 0 -i 16 -k RTR
h -t 1.181826657 -s 0 -d 14 -p tcp -e 1540 -c 2 -a 0 -i 16 -k RTR
+ -t 1.195751518 -s 14 -d 4 -p tcp -e 1540 -c 2 -a 0 -i 9 -k RTR 
- -t 1.195751518 -s 14 -d 4 -p tcp -e 1540 -c 2 -a 0 -i 9 -k RTR
h -t 1.195751518 -s 14 -d 4 -p tcp -e 1540 -c 2 -a 0 -i 9 -k RTR
+ -t 1.197708601 -s 14 -d 0 -p ack -e 40 -c 2 -a 0 -i 14 -k RTR 
- -t 1.197708601 -s 14 -d 0 -p ack -e 40 -c 2 -a 0 -i 14 -k RTR
h -t 1.197708601 -s 14 -d 0 -p ack -e 40 -c 2 -a 0 -i 14 -k RTR
+ -t 1.211703663 -s 14 -d 4 -p tcp -e 1540 -c 2 -a 0 -i 12 -k RTR 
- -t 1.211703663 -s 14 -d 4 -p tcp -e 1540 -c 2 -a 0 -i 12 -k RTR
h -t 1.211703663 -s 14 -d 4 -p tcp -e 1540 -c 2 -a 0 -i 12 -k RTR
r -t 1.225730040 -s 4 -d 4 -p tcp -e 1540 -c 2 -a 0 -i 9 -k AGT
+ -t 1.225730040 -s 4 -d -1 -p ack -e 40 -c 2 -a 0 -i 17 -k AGT 
- -t 1.225730040 -s 4 -d -1 -p ack -e 40 -c 2 -a 0 -i 17 -k AGT
h -t 1.225730040 -s 4 -d -1 -p ack -e 40 -c 2 -a 0 -i 17 -k AGT
+ -t 1.225730040 -s 4 -d 14 -p ack -e 40 -c 2 -a 0 -i 17 -k RTR 
- -t 1.225730040 -s 4 -d 14 -p ack -e 40 -c 2 -a 0 -i 17 -k RTR
h -t 1.225730040 -s 4 -d 14 -p ack -e 40 -c 2 -a 0 -i 17 -k RTR
+ -t 1.227596418 -s 14 -d 0 -p ack -e 40 -c 2 -a 0 -i 17 -k RTR 
- -t 1.227596418 -s 14 -d 0 -p ack -e 40 -c 2 -a 0 -i 17 -k RTR
h -t 1.227596418 -s 14 -d 0 -p ack -e 40 -c 2 -a 0 -i 17 -k RTR
+ -t 1.241571480 -s 14 -d 4 -p tcp -e 1540 -c 2 -a 0 -i 13 -k RTR 
- -t 1.241571480 -s 14 -d 4 -p tcp -e 1540 -c 2 -a 0 -i 13 -k RTR
h -t 1.241571480 -s 14 -d 4 -p tcp -e 1540 -c 2 -a 0 -i 13 -k RTR
+ -t 1.255596631 -s 14 -d 4 -p tcp -e 1540 -c 2 -a 0 -i 15 -k RTR 
- -t 1.255596631 -s 14 -d 4 -p tcp -e 1540 -c 2 -a 0 -i 15 -k RTR
h -t 1.255596631 -s 14 -d 4 -p tcp -e 1540 -c 2 -a 0 -i 15 -k RTR
r -t 1.257501494 -s 0 -d 0 -p ack -e 40 -c 2 -a 0 -i 14 -k AGT
+ -t 1.257501494 -s 0 -d -1 -p tcp -e 1540 -c 2 -a 0 -i 18 -k AGT 
- -t 1.257501494 -s 0 -d -1 -p tcp -e 1540 -c 2 -a 0 -i 18 -k AGT
h -t 1.257501494 -s 0 -d -1 -p tcp -e 1540 -c 2 -a 0 -i 18 -k AGT
+ -t 1.257501494 -s 0 -d -1 -p tcp -e 1540 -c 2 -a 0 -i 19 -k AGT 
- -t 1.257501494 -s 0 -d -1 -p tcp -e 1540 -c 2 -a 0 -i 19 -k AGT
h -t 1.257501494 -s 0 -d -1 -p tcp -e 1540 -c 2 -a 0 -i 19 -k AGT
+ -t 1.257501494 -s 0 -d 14 -p tcp -e 1540 -c 2 -a 0 -i 18 -k RTR 
- -t 1.257501494 -s 0 -d 14 -p tcp -e 1540 -c 2 -a 0 -i 18 -k RTR
h -t 1.257501494 -s 0 -d 14 -p tcp -e 1540 -c 2 -a 0 -i 18 -k RTR
+ -t 1.257501494 -s 0 -d 14 -p tcp -e 1540 -c 2 -a 0 -i 19 -k RTR 
- -t 1.257501494 -s 0 -d 14 -p tcp -e 1540 -c 2 -a 0 -i 19 -k RTR
h -t 1.257501494 -s 0 -d 14 -p tcp -e 1540 -c 2 -a 0 -i 19 -k RTR
+ -t 1.271346357 -s 14 -d 4 -p tcp -e 1540 -c 2 -a 0 -i 16 -k RTR 
- -t 1.271346357 -s 14 -d 4 -p tcp -e 1540 -c 2 -a 0 -i 16 -k RTR
h -t 1.271346357 -s 14 -d 4 -p tcp -e 1540 -c 2 -a 0 -i 16 -k RTR
r -t 1.285232736 -s 4 -d 4 -p tcp -e 1540 -c 2 -a 0 -i 12 -k AGT
+ -t 1.285232736 -s 4 -d -1 -p ack -e 40 -c 2 -a 0 -i 20 -k AGT 
- -t 1.285232736 -s 4 -d -1 -p ack -e 40 -c 2 -a 0 -i 20 -k AGT
h -t 1.285232736 -s 4 -d -1 -p ack -e 40 -c 2 -a 0 -i 20 -k AGT
+ -t 1.285232736 -s 4 -d 14 -p ack -e 40 -c 2 -a 0 -i 20 -k RTR 
- -t 1.285232736 -s 4 -d 14 -p ack -e 40 -c 2 -a 0 -i 20 -k RTR
h -t 1.285232736 -s 4 -d 14 -p ack -e 40 -c 2 -a 0 -i 20 -k RTR
r -t 1.287118393 -s 0 -d 0 -p ack -e 40 -c 2 -a 0 -i 17 -k AGT
+ -t 1.287118393 -s 0 -d -1 -p tcp -e 1540 -c 2 -a 0 -i 21 -k AGT 
- -t 1.287118393 -s 0 -d -1 -p tcp -e 1540 -c 2 -a 0 -i 21 -k AGT
h -t 1.287118393 -s 0 -d -1 -p tcp -e 1540 -c 2 -a 0 -i 21 -k AGT
+ -t 1.287118393 -s 0 -d -1 -p tcp -e 1540 -c 2 -a 0 -i 22 -k AGT 
- -t 1.287118393 -s 0 -d -1 -p tcp -e 1540 -c 2 -a 0 -i 22 -k AGT
h -t 1.287118393 -s 0 -d -1 -p tcp -e 1540 -c 2 -a 0 -i 22 -k AGT
+ -t 1.287118393 -s 0 -d 14 -p tcp -e 1540 -c 2 -a 0 -i 21 -k RTR 
- -t 1.287118393 -s 0 -d 14 -p tcp -e 1540 -c 2 -a 0 -i 21 -k RTR
h -t 1.287118393 -s 0 -d 14 -p tcp -e 1540 -c 2 -a 0 -i 21 -k RTR
+ -t 1.287118393 -s 0 -d 14 -p tcp -e 1540 -c 2 -a 0 -i 22 -k RTR 
- -t 1.287118393 -s 0 -d 14 -p tcp -e 1540 -c 2 -a 0 -i 22 -k RTR
h -t 1.287118393 -s 0 -d 14 -p tcp -e 1540 -c 2 -a 0 -i 22 -k RTR
+ -t 1.301143257 -s 14 -d 4 -p tcp -e 1540 -c 2 -a 0 -i 18 -k RTR 
- -t 1.301143257 -s 14 -d 4 -p tcp -e 1540 -c 2 -a 0 -i 18 -k RTR
h -t 1.301143257 -s 14 -d 4 -p tcp -e 1540 -c 2 -a 0 -i 18 -k RTR
r -t 1.315109638 -s 4 -d 4 -p tcp -e 1540 -c 2 -a 0 -i 13 -k AGT
+ -t 1.315109638 -s 4 -d -1 -p ack -e 40 -c 2 -a 0 -i 23 -k AGT 
- -t 1.315109638 -s 4 -d -1 -p ack -e 40 -c 2 -a 0 -i 23 -k AGT
h -t 1.315109638 -s 4 -d -1 -p ack -e 40 -c 2 -a 0 -i 23 -k AGT
+ -t 1.315109638 -s 4 -d 14 -p ack -e 40 -c 2 -a 0 -i 23 -k RTR 
- -t 1.315109638 -s 4 -d 14 -p ack -e 40 -c 2 -a 0 -i 23 -k RTR
h -t 1.315109638 -s 4 -d 14 -p ack -e 40 -c 2 -a 0 -i 23 -k RTR
+ -t 1.316996018 -s 14 -d 0 -p ack -e 40 -c 2 -a 0 -i 20 -k RTR 
- -t 1.316996018 -s 14 -d 0 -p ack -e 40 -c 2 -a 0 -i 20 -k RTR
h -t 1.316996018 -s 14 -d 0 -p ack -e 40 -c 2 -a 0 -i 20 -k RTR
r -t 1.331729986 -s 4 -d 4 -p tcp -e 1540 -c 2 -a 0 -i 15 -k AGT
+ -t 1.331729986 -s 4 -d -1 -p ack -e 40 -c 2 -a 0 -i 24 -k AGT 
- -t 1.331729986 -s 4 -d -1 -p ack -e 40 -c 2 -a 0 -i 24 -k AGT
h -t 1.331729986 -s 4 -d -1 -p ack -e 40 -c 2 -a 0 -i 24 -k AGT
+ -t 1.331729986 -s 4 -d 14 -p ack -e 40 -c 2 -a 0 -i 24 -k RTR 
- -t 1.331729986 -s 4 -d 14 -p ack -e 40 -c 2 -a 0 -i 24 -k RTR
h -t 1.331729986 -s 4 -d 14 -p ack -e 40 -c 2 -a 0 -i 24 -k RTR
r -t 1.333172963 -s 15 -d -1 -p AODV -e 48 -c 2 -a 0 -i 0 -k RTR
r -t 1.333173350 -s 4 -d -1 -p AODV -e 48 -c 2 -a 0 -i 0 -k RTR
+ -t 1.335385731 -s 14 -d 0 -p ack -e 40 -c 2 -a 0 -i 23 -k RTR 
- -t 1.335385731 -s 14 -d 0 -p ack -e 40 -c 2 -a 0 -i 23 -k RTR
h -t 1.335385731 -s 14 -d 0 -p ack -e 40 -c 2 -a 0 -i 23 -k RTR
r -t 1.349272113 -s 4 -d 4 -p tcp -e 1540 -c 2 -a 0 -i 16 -k AGT
+ -t 1.349272113 -s 4 -d -1 -p ack -e 40 -c 2 -a 0 -i 25 -k AGT 
- -t 1.349272113 -s 4 -d -1 -p ack -e 40 -c 2 -a 0 -i 25 -k AGT
h -t 1.349272113 -s 4 -d -1 -p ack -e 40 -c 2 -a 0 -i 25 -k AGT
+ -t 1.349272113 -s 4 -d 14 -p ack -e 40 -c 2 -a 0 -i 25 -k RTR 
- -t 1.349272113 -s 4 -d 14 -p ack -e 40 -c 2 -a 0 -i 25 -k RTR
h -t 1.349272113 -s 4 -d 14 -p ack -e 40 -c 2 -a 0 -i 25 -k RTR
r -t 1.363399288 -s 4 -d 4 -p tcp -e 1540 -c 2 -a 0 -i 18 -k AGT
+ -t 1.363399288 -s 4 -d -1 -p ack -e 40 -c 2 -a 0 -i 26 -k AGT 
- -t 1.363399288 -s 4 -d -1 -p ack -e 40 -c 2 -a 0 -i 26 -k AGT
h -t 1.363399288 -s 4 -d -1 -p ack -e 40 -c 2 -a 0 -i 26 -k AGT
+ -t 1.363399288 -s 4 -d 14 -p ack -e 40 -c 2 -a 0 -i 26 -k RTR 
- -t 1.363399288 -s 4 -d 14 -p ack -e 40 -c 2 -a 0 -i 26 -k RTR
h -t 1.363399288 -s 4 -d 14 -p ack -e 40 -c 2 -a 0 -i 26 -k RTR
+ -t 1.365405671 -s 14 -d 0 -p ack -e 40 -c 2 -a 0 -i 24 -k RTR 
- -t 1.365405671 -s 14 -d 0 -p ack -e 40 -c 2 -a 0 -i 24 -k RTR
h -t 1.365405671 -s 14 -d 0 -p ack -e 40 -c 2 -a 0 -i 24 -k RTR
r -t 1.367350537 -s 0 -d 0 -p ack -e 40 -c 2 -a 0 -i 20 -k AGT
+ -t 1.367350537 -s 0 -d -1 -p tcp -e 1540 -c 2 -a 0 -i 27 -k AGT 
- -t 1.367350537 -s 0 -d -1 -p tcp -e 1540 -c 2 -a 0 -i 27 -k AGT
h -t 1.367350537 -s 0 -d -1 -p tcp -e 1540 -c 2 -a 0 -i 27 -k AGT
+ -t 1.367350537 -s 0 -d -1 -p tcp -e 1540 -c 2 -a 0 -i 28 -k AGT 
- -t 1.367350537 -s 0 -d -1 -p tcp -e 1540 -c 2 -a 0 -i 28 -k AGT
h -t 1.367350537 -s 0 -d -1 -p tcp -e 1540 -c 2 -a 0 -i 28 -k AGT
+ -t 1.367350537 -s 0 -d 14 -p tcp -e 1540 -c 2 -a 0 -i 27 -k RTR 
- -t 1.367350537 -s 0 -d 14 -p tcp -e 1540 -c 2 -a 0 -i 27 -k RTR
h -t 1.367350537 -s 0 -d 14 -p tcp -e 1540 -c 2 -a 0 -i 27 -k RTR
+ -t 1.367350537 -s 0 -d 14 -p tcp -e 1540 -c 2 -a 0 -i 28 -k RTR 
- -t 1.367350537 -s 0 -d 14 -p tcp -e 1540 -c 2 -a 0 -i 28 -k RTR
h -t 1.367350537 -s 0 -d 14 -p tcp -e 1540 -c 2 -a 0 -i 28 -k RTR
+ -t 1.381255403 -s 14 -d 4 -p tcp -e 1540 -c 2 -a 0 -i 19 -k RTR 
- -t 1.381255403 -s 14 -d 4 -p tcp -e 1540 -c 2 -a 0 -i 19 -k RTR
h -t 1.381255403 -s 14 -d 4 -p tcp -e 1540 -c 2 -a 0 -i 19 -k RTR
+ -t 1.395120559 -s 14 -d 4 -p tcp -e 1540 -c 2 -a 0 -i 21 -k RTR 
- -t 1.395120559 -s 14 -d 4 -p tcp -e 1540 -c 2 -a 0 -i 21 -k RTR
h -t 1.395120559 -s 14 -d 4 -p tcp -e 1540 -c 2 -a 0 -i 21 -k RTR
r -t 1.397165426 -s 0 -d 0 -p ack -e 40 -c 2 -a 0 -i 23 -k AGT
+ -t 1.397165426 -s 0 -d -1 -p tcp -e 1540 -c 2 -a 0 -i 29 -k AGT 
- -t 1.397165426 -s 0 -d -1 -p tcp -e 1540 -c 2 -a 0 -i 29 -k AGT
h -t 1.397165426 -s 0 -d -1 -p tcp -e 1540 -c 2 -a 0 -i 29 -k AGT
+ -t 1.397165426 -s 0 -d -1 -p tcp -e 1540 -c 2 -a 0 -i 30 -k AGT 
- -t 1.397165426 -s 0 -d -1 -p tcp -e 1540 -c 2 -a 0 -i 30 -k AGT
h -t 1.397165426 -s 0 -d -1 -p tcp -e 1540 -c 2 -a 0 -i 30 -k AGT
+ -t 1.397165426 -s 0 -d 14 -p tcp -e 1540 -c 2 -a 0 -i 29 -k RTR 
- -t 1.397165426 -s 0 -d 14 -p tcp -e 1540 -c 2 -a 0 -i 29 -k RTR
h -t 1.397165426 -s 0 -d 14 -p tcp -e 1540 -c 2 -a 0 -i 29 -k RTR
+ -t 1.397165426 -s 0 -d 14 -p tcp -e 1540 -c 2 -a 0 -i 30 -k RTR 
- -t 1.397165426 -s 0 -d 14 -p tcp -e 1540 -c 2 -a 0 -i 30 -k RTR
h -t 1.397165426 -s 0 -d 14 -p tcp -e 1540 -c 2 -a 0 -i 30 -k RTR
r -t 1.399210582 -s 0 -d 0 -p ack -e 40 -c 2 -a 0 -i 24 -k AGT
+ -t 1.399210582 -s 0 -d -1 -p tcp -e 1540 -c 2 -a 0 -i 31 -k AGT 
- -t 1.399210582 -s 0 -d -1 -p tcp -e 1540 -c 2 -a 0 -i 31 -k AGT
h -t 1.399210582 -s 0 -d -1 -p tcp -e 1540 -c 2 -a 0 -i 31 -k AGT
+ -t 1.399210582 -s 0 -d -1 -p tcp -e 1540 -c 2 -a 0 -i 32 -k AGT 
- -t 1.399210582 -s 0 -d -1 -p tcp -e 1540 -c 2 -a 0 -i 32 -k AGT
h -t 1.399210582 -s 0 -d -1 -p tcp -e 1540 -c 2 -a 0 -i 32 -k AGT
+ -t 1.399210582 -s 0 -d 14 -p tcp -e 1540 -c 2 -a 0 -i 31 -k RTR 
- -t 1.399210582 -s 0 -d 14 -p tcp -e 1540 -c 2 -a 0 -i 31 -k RTR
h -t 1.399210582 -s 0 -d 14 -p tcp -e 1540 -c 2 -a 0 -i 31 -k RTR
+ -t 1.399210582 -s 0 -d 14 -p tcp -e 1540 -c 2 -a 0 -i 32 -k RTR 
- -t 1.399210582 -s 0 -d 14 -p tcp -e 1540 -c 2 -a 0 -i 32 -k RTR
h -t 1.399210582 -s 0 -d 14 -p tcp -e 1540 -c 2 -a 0 -i 32 -k RTR
+ -t 1.413175449 -s 14 -d 4 -p tcp -e 1540 -c 2 -a 0 -i 22 -k RTR 
- -t 1.413175449 -s 14 -d 4 -p tcp -e 1540 -c 2 -a 0 -i 22 -k RTR
h -t 1.413175449 -s 14 -d 4 -p tcp -e 1540 -c 2 -a 0 -i 22 -k RTR
r -t 1.427041833 -s 4 -d 4 -p tcp -e 1540 -c 2 -a 0 -i 19 -k AGT
+ -t 1.427041833 -s 4 -d -1 -p ack -e 40 -c 2 -a 0 -i 33 -k AGT 
- -t 1.427041833 -s 4 -d -1 -p ack -e 40 -c 2 -a 0 -i 33 -k AGT
h -t 1.427041833 -s 4 -d -1 -p ack -e 40 -c 2 -a 0 -i 33 -k AGT
+ -t 1.427041833 -s 4 -d 14 -p ack -e 40 -c 2 -a 0 -i 33 -k RTR 
- -t 1.427041833 -s 4 -d 14 -p ack -e 40 -c 2 -a 0 -i 33 -k RTR
h -t 1.427041833 -s 4 -d 14 -p ack -e 40 -c 2 -a 0 -i 33 -k RTR
+ -t 1.428888217 -s 14 -d 0 -p ack -e 40 -c 2 -a 0 -i 25 -k RTR 
- -t 1.428888217 -s 14 -d 0 -p ack -e 40 -c 2 -a 0 -i 25 -k RTR
h -t 1.428888217 -s 14 -d 0 -p ack -e 40 -c 2 -a 0 -i 25 -k RTR
+ -t 1.442883284 -s 14 -d 4 -p tcp -e 1540 -c 2 -a 0 -i 27 -k RTR 
- -t 1.442883284 -s 14 -d 4 -p tcp -e 1540 -c 2 -a 0 -i 27 -k RTR
h -t 1.442883284 -s 14 -d 4 -p tcp -e 1540 -c 2 -a 0 -i 27 -k RTR
+ -t 1.456828442 -s 14 -d 4 -p tcp -e 1540 -c 2 -a 0 -i 28 -k RTR 
- -t 1.456828442 -s 14 -d 4 -p tcp -e 1540 -c 2 -a 0 -i 28 -k RTR
h -t 1.456828442 -s 14 -d 4 -p tcp -e 1540 -c 2 -a 0 -i 28 -k RTR
r -t 1.470794828 -s 4 -d 4 -p tcp -e 1540 -c 2 -a 0 -i 21 -k AGT
+ -t 1.470794828 -s 4 -d -1 -p ack -e 40 -c 2 -a 0 -i 34 -k AGT 
- -t 1.470794828 -s 4 -d -1 -p ack -e 40 -c 2 -a 0 -i 34 -k AGT
h -t 1.470794828 -s 4 -d -1 -p ack -e 40 -c 2 -a 0 -i 34 -k AGT
+ -t 1.470794828 -s 4 -d 14 -p ack -e 40 -c 2 -a 0 -i 34 -k RTR 
- -t 1.470794828 -s 4 -d 14 -p ack -e 40 -c 2 -a 0 -i 34 -k RTR
h -t 1.470794828 -s 4 -d 14 -p ack -e 40 -c 2 -a 0 -i 34 -k RTR
+ -t 1.472721214 -s 14 -d 0 -p ack -e 40 -c 2 -a 0 -i 26 -k RTR 
- -t 1.472721214 -s 14 -d 0 -p ack -e 40 -c 2 -a 0 -i 26 -k RTR
h -t 1.472721214 -s 14 -d 0 -p ack -e 40 -c 2 -a 0 -i 26 -k RTR
+ -t 1.474548395 -s 14 -d 0 -p ack -e 40 -c 2 -a 0 -i 33 -k RTR 
- -t 1.474548395 -s 14 -d 0 -p ack -e 40 -c 2 -a 0 -i 33 -k RTR
h -t 1.474548395 -s 14 -d 0 -p ack -e 40 -c 2 -a 0 -i 33 -k RTR
+ -t 1.488443463 -s 14 -d 4 -p tcp -e 1540 -c 2 -a 0 -i 29 -k RTR 
- -t 1.488443463 -s 14 -d 4 -p tcp -e 1540 -c 2 -a 0 -i 29 -k RTR
h -t 1.488443463 -s 14 -d 4 -p tcp -e 1540 -c 2 -a 0 -i 29 -k RTR
r -t 1.502329849 -s 4 -d 4 -p tcp -e 1540 -c 2 -a 0 -i 22 -k AGT
+ -t 1.502329849 -s 4 -d -1 -p ack -e 40 -c 2 -a 0 -i 35 -k AGT 
- -t 1.502329849 -s 4 -d -1 -p ack -e 40 -c 2 -a 0 -i 35 -k AGT
h -t 1.502329849 -s 4 -d -1 -p ack -e 40 -c 2 -a 0 -i 35 -k AGT
+ -t 1.502329849 -s 4 -d 14 -p ack -e 40 -c 2 -a 0 -i 35 -k RTR 
- -t 1.502329849 -s 4 -d 14 -p ack -e 40 -c 2 -a 0 -i 35 -k RTR
h -t 1.502329849 -s 4 -d 14 -p ack -e 40 -c 2 -a 0 -i 35 -k RTR
+ -t 1.504236236 -s 14 -d 0 -p ack -e 40 -c 2 -a 0 -i 34 -k RTR 
- -t 1.504236236 -s 14 -d 0 -p ack -e 40 -c 2 -a 0 -i 34 -k RTR
h -t 1.504236236 -s 14 -d 0 -p ack -e 40 -c 2 -a 0 -i 34 -k RTR
r -t 1.506301106 -s 0 -d 0 -p ack -e 40 -c 2 -a 0 -i 25 -k AGT
+ -t 1.506301106 -s 0 -d -1 -p tcp -e 1540 -c 2 -a 0 -i 36 -k AGT 
- -t 1.506301106 -s 0 -d -1 -p tcp -e 1540 -c 2 -a 0 -i 36 -k AGT
h -t 1.506301106 -s 0 -d -1 -p tcp -e 1540 -c 2 -a 0 -i 36 -k AGT
+ -t 1.506301106 -s 0 -d -1 -p tcp -e 1540 -c 2 -a 0 -i 37 -k AGT 
- -t 1.506301106 -s 0 -d -1 -p tcp -e 1540 -c 2 -a 0 -i 37 -k AGT
h -t 1.506301106 -s 0 -d -1 -p tcp -e 1540 -c 2 -a 0 -i 37 -k AGT
+ -t 1.506301106 -s 0 -d 14 -p tcp -e 1540 -c 2 -a 0 -i 36 -k RTR 
- -t 1.506301106 -s 0 -d 14 -p tcp -e 1540 -c 2 -a 0 -i 36 -k RTR