M 1.00000 0 (787.00, 775.00, 0.00), (319.00, 402.00), 10.00
M 1.00000 1 (930.00, 60.00, 0.00), (617.00, 363.00), 2.00
M 1.00000 2 (445.00, 349.00, 0.00), (488.00, 384.00), 2.00
M 1.00000 3 (789.00, 285.00, 0.00), (920.00, 721.00), 7.00
M 1.00000 4 (858.00, 486.00, 0.00), (647.00, 164.00), 8.00
M 1.00000 5 (299.00, 989.00, 0.00), (868.00, 910.00), 1.00
M 1.00000 6 (394.00, 685.00, 0.00), (560.00, 327.00), 3.00
M 1.00000 7 (55.00, 235.00, 0.00), (646.00, 825.00), 6.00
M 1.00000 8 (620.00, 41.00, 0.00), (433.00, 385.00), 2.00
M 1.00000 9 (779.00, 603.00, 0.00), (613.00, 297.00), 5.00
M 1.00000 10 (366.00, 774.00, 0.00), (479.00, 885.00), 4.00
M 1.00000 11 (989.00, 123.00, 0.00), (5.00, 927.00), 7.00
M 1.00000 12 (286.00, 552.00, 0.00), (858.00, 351.00), 8.00
M 1.00000 13 (287.00, 383.00, 0.00), (363.00, 247.00), 3.00
M 1.00000 14 (855.00, 723.00, 0.00), (518.00, 213.00), 4.00
M 1.00000 15 (809.00, 379.00, 0.00), (856.00, 297.00), 9.00
M 1.00000 16 (971.00, 799.00, 0.00), (723.00, 96.00), 4.00
M 1.00000 17 (600.00, 23.00, 0.00), (389.00, 902.00), 10.00
M 1.00000 18 (990.00, 956.00, 0.00), (597.00, 996.00), 1.00
M 1.00000 19 (288.00, 348.00, 0.00), (985.00, 62.00), 2.00
M 1.00000 20 (556.00, 952.00, 0.00), (811.00, 306.00), 3.00
M 1.00000 21 (909.00, 823.00, 0.00), (949.00, 113.00), 3.00
M 1.00000 22 (121.00, 287.00, 0.00), (826.00, 524.00), 1.00
M 1.00000 23 (231.00, 282.00, 0.00), (939.00, 11.00), 0.00
M 1.00000 24 (593.00, 102.00, 0.00), (231.00, 764.00), 7.00
s 1.000000000 _0_ AGT  --- 0 tcp 40 [0 0 0 0] ------- [0:0 4:0 32 0] [0 0] 0 0
r 1.000000000 _0_ RTR  --- 0 tcp 40 [0 0 0 0] ------- [0:0 4:0 32 0] [0 0] 0 0
s 1.000000000 _0_ RTR  --- 0 AODV 48 [0 0 0 0] ------- [0:255 -1:255 30 0] [0x2 1 1 [4 0] [0 4]] (REQUEST)
r 1.000988285 _14_ RTR  --- 0 AODV 48 [0 ffffffff 0 800] ------- [0:255 -1:255 30 0] [0x2 1 1 [4 0] [0 4]] (REQUEST)
r 1.000988437 _21_ RTR  --- 0 AODV 48 [0 ffffffff 0 800] ------- [0:255 -1:255 30 0] [0x2 1 1 [4 0] [0 4]] (REQUEST)
r 1.000988574 _9_ RTR  --- 0 AODV 48 [0 ffffffff 0 800] ------- [0:255 -1:255 30 0] [0x2 1 1 [4 0] [0 4]] (REQUEST)
r 1.000988619 _16_ RTR  --- 0 AODV 48 [0 ffffffff 0 800] ------- [0:255 -1:255 30 0] [0x2 1 1 [4 0] [0 4]] (REQUEST)
s 1.001869512 _14_ RTR  --- 0 AODV 48 [0 ffffffff 0 800] ------- [14:255 -1:255 29 0] [0x2 2 1 [4 0] [0 4]] (REQUEST)
r 1.003017797 _0_ RTR  --- 0 AODV 48 [0 ffffffff e 800] ------- [14:255 -1:255 29 0] [0x2 2 1 [4 0] [0 4]] (REQUEST)
r 1.003017891 _21_ RTR  --- 0 AODV 48 [0 ffffffff e 800] ------- [14:255 -1:255 29 0] [0x2 2 1 [4 0] [0 4]] (REQUEST)
r 1.003017974 _16_ RTR  --- 0 AODV 48 [0 ffffffff e 800] ------- [14:255 -1:255 29 0] [0x2 2 1 [4 0] [0 4]] (REQUEST)
r 1.003017986 _9_ RTR  --- 0 AODV 48 [0 ffffffff e 800] ------- [14:255 -1:255 29 0] [0x2 2 1 [4 0] [0 4]] (REQUEST)
r 1.003018302 _4_ RTR  --- 0 AODV 48 [0 ffffffff e 800] ------- [14:255 -1:255 29 0] [0x2 2 1 [4 0] [0 4]] (REQUEST)
s 1.003018302 _4_ RTR  --- 0 AODV 44 [0 0 0 0] ------- [4:255 0:255 30 14] [0x4 1 [4 4] 10.000000] (REPLY)
s 1.004118236 _16_ RTR  --- 0 AODV 48 [0 ffffffff 0 800] ------- [16:255 -1:255 29 0] [0x2 2 1 [4 0] [0 4]] (REQUEST)
s 1.005400171 _21_ RTR  --- 0 AODV 48 [0 ffffffff 0 800] ------- [21:255 -1:255 29 0] [0x2 2 1 [4 0] [0 4]] (REQUEST)
r 1.007686833 _14_ RTR  --- 0 AODV 44 [13a e 4 800] ------- [4:255 0:255 30 14] [0x4 1 [4 4] 10.000000] (REPLY)
f 1.007686833 _14_ RTR  --- 0 AODV 44 [13a e 4 800] ------- [4:255 0:255 29 0] [0x4 2 [4 4] 10.000000] (REPLY)
s 1.008980128 _9_ RTR  --- 0 AODV 48 [0 ffffffff 0 800] ------- [9:255 -1:255 29 0] [0x2 2 1 [4 0] [0 4]] (REQUEST)
r 1.008989374 _21_ RTR  --- 0 AODV 48 [0 ffffffff 10 800] ------- [16:255 -1:255 29 0] [0x2 2 1 [4 0] [0 4]] (REQUEST)
r 1.008989614 _14_ RTR  --- 0 AODV 48 [0 ffffffff 10 800] ------- [16:255 -1:255 29 0] [0x2 2 1 [4 0] [0 4]] (REQUEST)
r 1.008989679 _18_ RTR  --- 0 AODV 48 [0 ffffffff 10 800] ------- [16:255 -1:255 29 0] [0x2 2 1 [4 0] [0 4]] (REQUEST)
r 1.008989771 _0_ RTR  --- 0 AODV 48 [0 ffffffff 10 800] ------- [16:255 -1:255 29 0] [0x2 2 1 [4 0] [0 4]] (REQUEST)
s 1.013226247 _18_ RTR  --- 0 AODV 48 [0 ffffffff 10 800] ------- [18:255 -1:255 28 0] [0x2 3 1 [4 0] [0 4]] (REQUEST)
r 1.013404613 _0_ RTR  --- 0 AODV 44 [13a 0 e 800] ------- [4:255 0:255 29 0] [0x4 2 [4 4] 10.000000] (REPLY)
s 1.013404613 _0_ RTR  --- 0 tcp 40 [0 0 0 0] ------- [0:0 4:0 30 14] [0 0] 0 0
r 1.014717272 _16_ RTR  --- 0 AODV 48 [0 ffffffff 15 800] ------- [21:255 -1:255 29 0] [0x2 2 1 [4 0] [0 4]] (REQUEST)
r 1.014717429 _14_ RTR  --- 0 AODV 48 [0 ffffffff 15 800] ------- [21:255 -1:255 29 0] [0x2 2 1 [4 0] [0 4]] (REQUEST)
r 1.014717487 _0_ RTR  --- 0 AODV 48 [0 ffffffff 15 800] ------- [21:255 -1:255 29 0] [0x2 2 1 [4 0] [0 4]] (REQUEST)
r 1.014717569 _18_ RTR  --- 0 AODV 48 [0 ffffffff 15 800] ------- [21:255 -1:255 29 0] [0x2 2 1 [4 0] [0 4]] (REQUEST)
r 1.016308344 _14_ RTR  --- 0 tcp 40 [13a e 0 800] ------- [0:0 4:0 30 14] [0 0] 1 0
f 1.016308344 _14_ RTR  --- 0 tcp 40 [13a e 0 800] ------- [0:0 4:0 29 4] [0 0] 1 0
r 1.017561288 _4_ RTR  --- 0 AODV 48 [0 ffffffff 9 800] ------- [9:255 -1:255 29 0] [0x2 2 1 [4 0] [0 4]] (REQUEST)
r 1.017561291 _14_ RTR  --- 0 AODV 48 [0 ffffffff 9 800] ------- [9:255 -1:255 29 0] [0x2 2 1 [4 0] [0 4]] (REQUEST)
r 1.017561391 _0_ RTR  --- 0 AODV 48 [0 ffffffff 9 800] ------- [9:255 -1:255 29 0] [0x2 2 1 [4 0] [0 4]] (REQUEST)
r 1.017561571 _15_ RTR  --- 0 AODV 48 [0 ffffffff 9 800] ------- [9:255 -1:255 29 0] [0x2 2 1 [4 0] [0 4]] (REQUEST)
r 1.019473662 _4_ AGT  --- 0 tcp 40 [13a 4 e 800] ------- [0:0 4:0 29 4] [0 0] 2 0
s 1.019473662 _4_ AGT  --- 1 ack 40 [0 0 0 0] ------- [4:0 0:0 32 0] [0 0] 0 0
r 1.019473662 _4_ RTR  --- 1 ack 40 [0 0 0 0] ------- [4:0 0:0 32 0] [0 0] 0 0
s 1.019473662 _4_ RTR  --- 1 ack 40 [0 0 0 0] ------- [4:0 0:0 30 14] [0 0] 0 0
r 1.021171809 _21_ RTR  --- 0 AODV 48 [0 ffffffff 12 800] ------- [18:255 -1:255 28 0] [0x2 3 1 [4 0] [0 4]] (REQUEST)
r 1.021171817 _16_ RTR  --- 0 AODV 48 [0 ffffffff 12 800] ------- [18:255 -1:255 28 0] [0x2 3 1 [4 0] [0 4]] (REQUEST)
r 1.023109288 _14_ RTR  --- 1 ack 40 [13a e 4 800] ------- [4:0 0:0 30 14] [0 0] 1 0
f 1.023109288 _14_ RTR  --- 1 ack 40 [13a e 4 800] ------- [4:0 0:0 29 0] [0 0] 1 0
r 1.025234145 _0_ AGT  --- 1 ack 40 [13a 0 e 800] ------- [4:0 0:0 29 0] [0 0] 2 0
s 1.025234145 _0_ AGT  --- 2 tcp 1540 [0 0 0 0] ------- [0:0 4:0 32 0] [1 0] 0 0
r 1.025234145 _0_ RTR  --- 2 tcp 1540 [0 0 0 0] ------- [0:0 4:0 32 0] [1 0] 0 0
s 1.025234145 _0_ AGT  --- 3 tcp 1540 [0 0 0 0] ------- [0:0 4:0 32 0] [2 0] 0 0
r 1.025234145 _0_ RTR  --- 3 tcp 1540 [0 0 0 0] ------- [0:0 4:0 32 0] [2 0] 0 0
s 1.025234145 _0_ RTR  --- 2 tcp 1540 [0 0 0 0] ------- [0:0 4:0 30 14] [1 0] 0 0
s 1.025234145 _0_ RTR  --- 3 tcp 1540 [0 0 0 0] ------- [0:0 4:0 30 14] [2 0] 0 0
s 1.025959823 _15_ RTR  --- 0 AODV 48 [0 ffffffff 9 800] ------- [15:255 -1:255 28 0] [0x2 3 1 [4 0] [0 4]] (REQUEST)
r 1.039199002 _14_ RTR  --- 2 tcp 1540 [13a e 0 800] ------- [0:0 4:0 30 14] [1 0] 1 0
f 1.039199002 _14_ RTR  --- 2 tcp 1540 [13a e 0 800] ------- [0:0 4:0 29 4] [1 0] 1 0
r 1.053124144 _14_ RTR  --- 3 tcp 1540 [13a e 0 800] ------- [0:0 4:0 30 14] [2 0] 1 0
f 1.053124144 _14_ RTR  --- 3 tcp 1540 [13a e 0 800] ------- [0:0 4:0 29 4] [2 0] 1 0
r 1.067050516 _4_ AGT  --- 2 tcp 1540 [13a 4 e 800] ------- [0:0 4:0 29 4] [1 0] 2 0
s 1.067050516 _4_ AGT  --- 4 ack 40 [0 0 0 0] ------- [4:0 0:0 32 0] [1 0] 0 0
r 1.067050516 _4_ RTR  --- 4 ack 40 [0 0 0 0] ------- [4:0 0:0 32 0] [1 0] 0 0
s 1.067050516 _4_ RTR  --- 4 ack 40 [0 0 0 0] ------- [4:0 0:0 30 14] [1 0] 0 0
r 1.081077680 _4_ AGT  --- 3 tcp 1540 [13a 4 e 800] ------- [0:0 4:0 29 4] [2 0] 2 0
s 1.081077680 _4_ AGT  --- 5 ack 40 [0 0 0 0] ------- [4:0 0:0 32 0] [2 0] 0 0
r 1.081077680 _4_ RTR  --- 5 ack 40 [0 0 0 0] ------- [4:0 0:0 32 0] [2 0] 0 0
s 1.081077680 _4_ RTR  --- 5 ack 40 [0 0 0 0] ------- [4:0 0:0 30 14] [2 0] 0 0
r 1.082924053 _14_ RTR  --- 4 ack 40 [13a e 4 800] ------- [4:0 0:0 30 14] [1 0] 1 0
f 1.082924053 _14_ RTR  --- 4 ack 40 [13a e 4 800] ------- [4:0 0:0 29 0] [1 0] 1 0
r 1.084811217 _14_ RTR  --- 5 ack 40 [13a e 4 800] ------- [4:0 0:0 30 14] [2 0] 1 0
f 1.084811217 _14_ RTR  --- 5 ack 40 [13a e 4 800] ------- [4:0 0:0 29 0] [2 0] 1 0
r 1.087136075 _0_ AGT  --- 4 ack 40 [13a 0 e 800] ------- [4:0 0:0 29 0] [1 0] 2 0
s 1.087136075 _0_ AGT  --- 6 tcp 1540 [0 0 0 0] ------- [0:0 4:0 32 0] [3 0] 0 0
r 1.087136075 _0_ RTR  --- 6 tcp 1540 [0 0 0 0] ------- [0:0 4:0 32 0] [3 0] 0 0
s 1.087136075 _0_ AGT  --- 7 tcp 1540 [0 0 0 0] ------- [0:0 4:0 32 0] [4 0] 0 0
r 1.087136075 _0_ RTR  --- 7 tcp 1540 [0 0 0 0] ------- [0:0 4:0 32 0] [4 0] 0 0
s 1.087136075 _0_ RTR  --- 6 tcp 1540 [0 0 0 0] ------- [0:0 4:0 30 14] [3 0] 0 0
s 1.087136075 _0_ RTR  --- 7 tcp 1540 [0 0 0 0] ------- [0:0 4:0 30 14] [4 0] 0 0
r 1.101300933 _14_ RTR  --- 6 tcp 1540 [13a e 0 800] ------- [0:0 4:0 30 14] [3 0] 1 0
f 1.101300933 _14_ RTR  --- 6 tcp 1540 [13a e 0 800] ------- [0:0 4:0 29 4] [3 0] 1 0
r 1.103285792 _0_ AGT  --- 5 ack 40 [13a 0 e 800] ------- [4:0 0:0 29 0] [2 0] 2 0
s 1.103285792 _0_ AGT  --- 8 tcp 1540 [0 0 0 0] ------- [0:0 4:0 32 0] [5 0] 0 0
r 1.103285792 _0_ RTR  --- 8 tcp 1540 [0 0 0 0] ------- [0:0 4:0 32 0] [5 0] 0 0
s 1.103285792 _0_ AGT  --- 9 tcp 1540 [0 0 0 0] ------- [0:0 4:0 32 0] [6 0] 0 0
r 1.103285792 _0_ RTR  --- 9 tcp 1540 [0 0 0 0] ------- [0:0 4:0 32 0] [6 0] 0 0
s 1.103285792 _0_ RTR  --- 8 tcp 1540 [0 0 0 0] ------- [0:0 4:0 30 14] [5 0] 0 0
s 1.103285792 _0_ RTR  --- 9 tcp 1540 [0 0 0 0] ------- [0:0 4:0 30 14] [6 0] 0 0
r 1.117230651 _14_ RTR  --- 7 tcp 1540 [13a e 0 800] ------- [0:0 4:0 30 14] [4 0] 1 0
f 1.117230651 _14_ RTR  --- 7 tcp 1540 [13a e 0 800] ------- [0:0 4:0 29 4] [4 0] 1 0
r 1.131117025 _4_ AGT  --- 6 tcp 1540 [13a 4 e 800] ------- [0:0 4:0 29 4] [3 0] 2 0
s 1.131117025 _4_ AGT  --- 10 ack 40 [0 0 0 0] ------- [4:0 0:0 32 0] [3 0] 0 0
r 1.131117025 _4_ RTR  --- 10 ack 40 [0 0 0 0] ------- [4:0 0:0 32 0] [3 0] 0 0
s 1.131117025 _4_ RTR  --- 10 ack 40 [0 0 0 0] ------- [4:0 0:0 30 14] [3 0] 0 0
r 1.144944191 _4_ AGT  --- 7 tcp 1540 [13a 4 e 800] ------- [0:0 4:0 29 4] [4 0] 2 0
s 1.144944191 _4_ AGT  --- 11 ack 40 [0 0 0 0] ------- [4:0 0:0 32 0] [4 0] 0 0
r 1.144944191 _4_ RTR  --- 11 ack 40 [0 0 0 0] ------- [4:0 0:0 32 0] [4 0] 0 0
s 1.144944191 _4_ RTR  --- 11 ack 40 [0 0 0 0] ------- [4:0 0:0 30 14] [4 0] 0 0
r 1.146226872 _3_ RTR  --- 0 AODV 48 [0 ffffffff f 800] ------- [15:255 -1:255 28 0] [0x2 3 1 [4 0] [0 4]] (REQUEST)
r 1.146226949 _4_ RTR  --- 0 AODV 48 [0 ffffffff f 800] ------- [15:255 -1:255 28 0] [0x2 3 1 [4 0] [0 4]] (REQUEST)
r 1.146227314 _9_ RTR  --- 0 AODV 48 [0 ffffffff f 800] ------- [15:255 -1:255 28 0] [0x2 3 1 [4 0] [0 4]] (REQUEST)
r 1.148159324 _14_ RTR  --- 10 ack 40 [13a e 4 800] ------- [4:0 0:0 30 14] [3 0] 1 0
f 1.148159324 _14_ RTR  --- 10 ack 40 [13a e 4 800] ------- [4:0 0:0 29 0] [3 0] 1 0
r 1.150104184 _0_ AGT  --- 10 ack 40 [13a 0 e 800] ------- [4:0 0:0 29 0] [3 0] 2 0
s 1.150104184 _0_ AGT  --- 12 tcp 1540 [0 0 0 0] ------- [0:0 4:0 32 0] [7 0] 0 0
r 1.150104184 _0_ RTR  --- 12 tcp 1540 [0 0 0 0] ------- [0:0 4:0 32 0] [7 0] 0 0
s 1.150104184 _0_ AGT  --- 13 tcp 1540 [0 0 0 0] ------- [0:0 4:0 32 0] [8 0] 0 0
r 1.150104184 _0_ RTR  --- 13 tcp 1540 [0 0 0 0] ------- [0:0 4:0 32 0] [8 0] 0 0
s 1.150104184 _0_ RTR  --- 12 tcp 1540 [0 0 0 0] ------- [0:0 4:0 30 14] [7 0] 0 0
s 1.150104184 _0_ RTR  --- 13 tcp 1540 [0 0 0 0] ------- [0:0 4:0 30 14] [8 0] 0 0
s 1.151775269 _3_ RTR  --- 0 AODV 48 [0 ffffffff f 800] ------- [3:255 -1:255 27 0] [0x2 4 1 [4 0] [0 4]] (REQUEST)
r 1.164049044 _14_ RTR  --- 8 tcp 1540 [13a e 0 800] ------- [0:0 4:0 30 14] [5 0] 1 0
f 1.164049044 _14_ RTR  --- 8 tcp 1540 [13a e 0 800] ------- [0:0 4:0 29 4] [5 0] 1 0
r 1.177875420 _4_ AGT  --- 8 tcp 1540 [13a 4 e 800] ------- [0:0 4:0 29 4] [5 0] 2 0
s 1.177875420 _4_ AGT  --- 14 ack 40 [0 0 0 0] ------- [4:0 0:0 32 0] [5 0] 0 0
r 1.177875420 _4_ RTR  --- 14 ack 40 [0 0 0 0] ------- [4:0 0:0 32 0] [5 0] 0 0
s 1.177875420 _4_ RTR  --- 14 ack 40 [0 0 0 0] ------- [4:0 0:0 30 14] [5 0] 0 0
r 1.179801796 _14_ RTR  --- 11 ack 40 [13a e 4 800] ------- [4:0 0:0 30 14] [4 0] 1 0
f 1.179801796 _14_ RTR  --- 11 ack 40 [13a e 4 800] ------- [4:0 0:0 29 0] [4 0] 1 0
r 1.181826657 _0_ AGT  --- 11 ack 40 [13a 0 e 800] ------- [4:0 0:0 29 0] [4 0] 2 0
s 1.181826657 _0_ AGT  --- 15 tcp 1540 [0 0 0 0] ------- [0:0 4:0 32 0] [9 0] 0 0
r 1.181826657 _0_ RTR  --- 15 tcp 1540 [0 0 0 0] ------- [0:0 4:0 32 0] [9 0] 0 0
s 1.181826657 _0_ AGT  --- 16 tcp 1540 [0 0 0 0] ------- [0:0 4:0 32 0] [10 0] 0 0
r 1.181826657 _0_ RTR  --- 16 tcp 1540 [0 0 0 0] ------- [0:0 4:0 32 0] [10 0] 0 0
s 1.181826657 _0_ RTR  --- 15 tcp 1540 [0 0 0 0] ------- [0:0 4:0 30 14] [9 0] 0 0
s 1.181826657 _0_ RTR  --- 16 tcp 1540 [0 0 0 0] ------- [0:0 4:0 30 14] [10 0] 0 0
r 1.195751518 _14_ RTR  --- 9 tcp 1540 [13a e 0 800] ------- [0:0 4:0 30 14] [6 0] 1 0
f 1.195751518 _14_ RTR  --- 9 tcp 1540 [13a e 0 800] ------- [0:0 4:0 29 4] [6 0] 1 0
r 1.197708601 _14_ RTR  --- 14 ack 40 [13a e 4 800] ------- [4:0 0:0 30 14] [5 0] 1 0
f 1.197708601 _14_ RTR  --- 14 ack 40 [13a e 4 800] ------- [4:0 0:0 29 0] [5 0] 1 0
r 1.211703663 _14_ RTR  --- 12 tcp 1540 [13a e 0 800] ------- [0:0 4:0 30 14] [7 0] 1 0
f 1.211703663 _14_ RTR  --- 12 tcp 1540 [13a e 0 800] ------- [0:0 4:0 29 4] [7 0] 1 0
r 1.225730040 _4_ AGT  --- 9 tcp 1540 [13a 4 e 800] ------- [0:0 4:0 29 4] [6 0] 2 0
s 1.225730040 _4_ AGT  --- 17 ack 40 [0 0 0 0] ------- [4:0 0:0 32 0] [6 0] 0 0
r 1.225730040 _4_ RTR  --- 17 ack 40 [0 0 0 0] ------- [4:0 0:0 32 0] [6 0] 0 0
s 1.225730040 _4_ RTR  --- 17 ack 40 [0 0 0 0] ------- [4:0 0:0 30 14] [6 0] 0 0
r 1.227596418 _14_ RTR  --- 17 ack 40 [13a e 4 800] ------- [4:0 0:0 30 14] [6 0] 1 0
f 1.227596418 _14_ RTR  --- 17 ack 40 [13a e 4 800] ------- [4:0 0:0 29 0] [6 0] 1 0
r 1.241571480 _14_ RTR  --- 13 tcp 1540 [13a e 0 800] ------- [0:0 4:0 30 14] [8 0] 1 0
f 1.241571480 _14_ RTR  --- 13 tcp 1540 [13a e 0 800] ------- [0:0 4:0 29 4] [8 0] 1 0
r 1.255596631 _14_ RTR  --- 15 tcp 1540 [13a e 0 800] ------- [0:0 4:0 30 14] [9 0] 1 0
f 1.255596631 _14_ RTR  --- 15 tcp 1540 [13a e 0 800] ------- [0:0 4:0 29 4] [9 0] 1 0
r 1.257501494 _0_ AGT  --- 14 ack 40 [13a 0 e 800] ------- [4:0 0:0 29 0] [5 0] 2 0
s 1.257501494 _0_ AGT  --- 18 tcp 1540 [0 0 0 0] ------- [0:0 4:0 32 0] [11 0] 0 0
r 1.257501494 _0_ RTR  --- 18 tcp 1540 [0 0 0 0] ------- [0:0 4:0 32 0] [11 0] 0 0
s 1.257501494 _0_ AGT  --- 19 tcp 1540 [0 0 0 0] ------- [0:0 4:0 32 0] [12 0] 0 0
r 1.257501494 _0_ RTR  --- 19 tcp 1540 [0 0 0 0] ------- [0:0 4:0 32 0] [12 0] 0 0
s 1.257501494 _0_ RTR  --- 18 tcp 1540 [0 0 0 0] ------- [0:0 4:0 30 14] [11 0] 0 0
s 1.257501494 _0_ RTR  --- 19 tcp 1540 [0 0 0 0] ------- [0:0 4:0 30 14] [12 0] 0 0
r 1.271346357 _14_ RTR  --- 16 tcp 1540 [13a e 0 800] ------- [0:0 4:0 30 14] [10 0] 1 0
f 1.271346357 _14_ RTR  --- 16 tcp 1540 [13a e 0 800] ------- [0:0 4:0 29 4] [10 0] 1 0
r 1.285232736 _4_ AGT  --- 12 tcp 1540 [13a 4 e 800] ------- [0:0 4:0 29 4] [7 0] 2 0
s 1.285232736 _4_ AGT  --- 20 ack 40 [0 0 0 0] ------- [4:0 0:0 32 0] [7 0] 0 0
r 1.285232736 _4_ RTR  --- 20 ack 40 [0 0 0 0] ------- [4:0 0:0 32 0] [7 0] 0 0
s 1.285232736 _4_ RTR  --- 20 ack 40 [0 0 0 0] ------- [4:0 0:0 30 14] [7 0] 0 0
r 1.287118393 _0_ AGT  --- 17 ack 40 [13a 0 e 800] ------- [4:0 0:0 29 0] [6 0] 2 0
s 1.287118393 _0_ AGT  --- 21 tcp 1540 [0 0 0 0] ------- [0:0 4:0 32 0] [13 0] 0 0
r 1.287118393 _0_ RTR  --- 21 tcp 1540 [0 0 0 0] ------- [0:0 4:0 32 0] [13 0] 0 0
s 1.287118393 _0_ AGT  --- 22 tcp 1540 [0 0 0 0] ------- [0:0 4:0 32 0] [14 0] 0 0
r 1.287118393 _0_ RTR  --- 22 tcp 1540 [0 0 0 0] ------- [0:0 4:0 32 0] [14 0] 0 0
s 1.287118393 _0_ RTR  --- 21 tcp 1540 [0 0 0 0] ------- [0:0 4:0 30 14] [13 0] 0 0
s 1.287118393 _0_ RTR  --- 22 tcp 1540 [0 0 0 0] ------- [0:0 4:0 30 14] [14 0] 0 0
r 1.301143257 _14_ RTR  --- 18 tcp 1540 [13a e 0 800] ------- [0:0 4:0 30 14] [11 0] 1 0
f 1.301143257 _14_ RTR  --- 18 tcp 1540 [13a e 0 800] ------- [0:0 4:0 29 4] [11 0] 1 0
r 1.315109638 _4_ AGT  --- 13 tcp 1540 [13a 4 e 800] ------- [0:0 4:0 29 4] [8 0] 2 0
s 1.315109638 _4_ AGT  --- 23 ack 40 [0 0 0 0] ------- [4:0 0:0 32 0] [8 0] 0 0
r 1.315109638 _4_ RTR  --- 23 ack 40 [0 0 0 0] ------- [4:0 0:0 32 0] [8 0] 0 0
s 1.315109638 _4_ RTR  --- 23 ack 40 [0 0 0 0] ------- [4:0 0:0 30 14] [8 0] 0 0
r 1.316996018 _14_ RTR  --- 20 ack 40 [13a e 4 800] ------- [4:0 0:0 30 14] [7 0] 1 0
f 1.316996018 _14_ RTR  --- 20 ack 40 [13a e 4 800] ------- [4:0 0:0 29 0] [7 0] 1 0
r 1.331729986 _4_ AGT  --- 15 tcp 1540 [13a 4 e 800] ------- [0:0 4:0 29 4] [9 0] 2 0
s 1.331729986 _4_ AGT  --- 24 ack 40 [0 0 0 0] ------- [4:0 0:0 32 0] [9 0] 0 0
r 1.331729986 _4_ RTR  --- 24 ack 40 [0 0 0 0] ------- [4:0 0:0 32 0] [9 0] 0 0
s 1.331729986 _4_ RTR  --- 24 ack 40 [0 0 0 0] ------- [4:0 0:0 30 14] [9 0] 0 0
r 1.333172963 _15_ RTR  --- 0 AODV 48 [0 ffffffff 3 800] ------- [3:255 -1:255 27 0] [0x2 4 1 [4 0] [0 4]] (REQUEST)
r 1.333173350 _4_ RTR  --- 0 AODV 48 [0 ffffffff 3 800] ------- [3:255 -1:255 27 0] [0x2 4 1 [4 0] [0 4]] (REQUEST)
r 1.335385731 _14_ RTR  --- 23 ack 40 [13a e 4 800] ------- [4:0 0:0 30 14] [8 0] 1 0
f 1.335385731 _14_ RTR  --- 23 ack 40 [13a e 4 800] ------- [4:0 0:0 29 0] [8 0] 1 0
r 1.349272113 _4_ AGT  --- 16 tcp 1540 [13a 4 e 800] ------- [0:0 4:0 29 4] [10 0] 2 0
s 1.349272113 _4_ AGT  --- 25 ack 40 [0 0 0 0] ------- [4:0 0:0 32 0] [10 0] 0 0
r 1.349272113 _4_ RTR  --- 25 ack 40 [0 0 0 0] ------- [4:0 0:0 32 0] [10 0] 0 0
s 1.349272113 _4_ RTR  --- 25 ack 40 [0 0 0 0] ------- [4:0 0:0 30 14] [10 0] 0 0
r 1.363399288 _4_ AGT  --- 18 tcp 1540 [13a 4 e 800] ------- [0:0 4:0 29 4] [11 0] 2 0
s 1.363399288 _4_ AGT  --- 26 ack 40 [0 0 0 0] ------- [4:0 0:0 32 0] [11 0] 0 0
r 1.363399288 _4_ RTR  --- 26 ack 40 [0 0 0 0] ------- [4:0 0:0 32 0] [11 0] 0 0
s 1.363399288 _4_ RTR  --- 26 ack 40 [0 0 0 0] ------- [4:0 0:0 30 14] [11 0] 0 0
r 1.365405671 _14_ RTR  --- 24 ack 40 [13a e 4 800] ------- [4:0 0:0 30 14] [9 0] 1 0
f 1.365405671 _14_ RTR  --- 24 ack 40 [13a e 4 800] ------- [4:0 0:0 29 0] [9 0] 1 0
r 1.367350537 _0_ AGT  --- 20 ack 40 [13a 0 e 800] ------- [4:0 0:0 29 0] [7 0] 2 0
s 1.367350537 _0_ AGT  --- 27 tcp 1540 [0 0 0 0] ------- [0:0 4:0 32 0] [15 0] 0 0
r 1.367350537 _0_ RTR  --- 27 tcp 1540 [0 0 0 0] ------- [0:0 4:0 32 0] [15 0] 0 0
s 1.367350537 _0_ AGT  --- 28 tcp 1540 [0 0 0 0] ------- [0:0 4:0 32 0] [16 0] 0 0
r 1.367350537 _0_ RTR  --- 28 tcp 1540 [0 0 0 0] ------- [0:0 4:0 32 0] [16 0] 0 0
s 1.367350537 _0_ RTR  --- 27 tcp 1540 [0 0 0 0] ------- [0:0 4:0 30 14] [15 0] 0 0
s 1.367350537 _0_ RTR  --- 28 tcp 1540 [0 0 0 0] ------- [0:0 4:0 30 14] [16 0] 0 0
r 1.381255403 _14_ RTR  --- 19 tcp 1540 [13a e 0 800] ------- [0:0 4:0 30 14] [12 0] 1 0
f 1.381255403 _14_ RTR  --- 19 tcp 1540 [13a e 0 800] ------- [0:0 4:0 29 4] [12 0] 1 0
r 1.395120559 _14_ RTR  --- 21 tcp 1540 [13a e 0 800] ------- [0:0 4:0 30 14] [13 0] 1 0
f 1.395120559 _14_ RTR  --- 21 tcp 1540 [13a e 0 800] ------- [0:0 4:0 29 4] [13 0] 1 0
r 1.397165426 _0_ AGT  --- 23 ack 40 [13a 0 e 800] ------- [4:0 0:0 29 0] [8 0] 2 0
s 1.397165426 _0_ AGT  --- 29 tcp 1540 [0 0 0 0] ------- [0:0 4:0 32 0] [17 0] 0 0
r 1.397165426 _0_ RTR  --- 29 tcp 1540 [0 0 0 0] ------- [0:0 4:0 32 0] [17 0] 0 0
s 1.397165426 _0_ AGT  --- 30 tcp 1540 [0 0 0 0] ------- [0:0 4:0 32 0] [18 0] 0 0
r 1.397165426 _0_ RTR  --- 30 tcp 1540 [0 0 0 0] ------- [0:0 4:0 32 0] [18 0] 0 0
s 1.397165426 _0_ RTR  --- 29 tcp 1540 [0 0 0 0] ------- [0:0 4:0 30 14] [17 0] 0 0
s 1.397165426 _0_ RTR  --- 30 tcp 1540 [0 0 0 0] ------- [0:0 4:0 30 14] [18 0] 0 0
r 1.399210582 _0_ AGT  --- 24 ack 40 [13a 0 e 800] ------- [4:0 0:0 29 0] [9 0] 2 0
s 1.399210582 _0_ AGT  --- 31 tcp 1540 [0 0 0 0] ------- [0:0 4:0 32 0] [19 0] 0 0
r 1.399210582 _0_ RTR  --- 31 tcp 1540 [0 0 0 0] ------- [0:0 4:0 32 0] [19 0] 0 0
s 1.399210582 _0_ AGT  --- 32 tcp 1540 [0 0 0 0] ------- [0:0 4:0 32 0] [20 0] 0 0
r 1.399210582 _0_ RTR  --- 32 tcp 1540 [0 0 0 0] ------- [0:0 4:0 32 0] [20 0] 0 0
s 1.399210582 _0_ RTR  --- 31 tcp 1540 [0 0 0 0] ------- [0:0 4:0 30 14] [19 0] 0 0
s 1.399210582 _0_ RTR  --- 32 tcp 1540 [0 0 0 0] ------- [0:0 4:0 30 14] [20 0] 0 0
r 1.413175449 _14_ RTR  --- 22 tcp 1540 [13a e 0 800] ------- [0:0 4:0 30 14] [14 0] 1 0
f 1.413175449 _14_ RTR  --- 22 tcp 1540 [13a e 0 800] ------- [0:0 4:0 29 4] [14 0] 1 0
r 1.427041833 _4_ AGT  --- 19 tcp 1540 [13a 4 e 800] ------- [0:0 4:0 29 4] [12 0] 2 0
s 1.427041833 _4_ AGT  --- 33 ack 40 [0 0 0 0] ------- [4:0 0:0 32 0] [12 0] 0 0
r 1.427041833 _4_ RTR  --- 33 ack 40 [0 0 0 0] ------- [4:0 0:0 32 0] [12 0] 0 0
s 1.427041833 _4_ RTR  --- 33 ack 40 [0 0 0 0] ------- [4:0 0:0 30 14] [12 0] 0 0
r 1.428888217 _14_ RTR  --- 25 ack 40 [13a e 4 800] ------- [4:0 0:0 30 14] [10 0] 1 0
f 1.428888217 _14_ RTR  --- 25 ack 40 [13a e 4 800] ------- [4:0 0:0 29 0] [10 0] 1 0
r 1.442883284 _14_ RTR  --- 27 tcp 1540 [13a e 0 800] ------- [0:0 4:0 30 14] [15 0] 1 0
f 1.442883284 _14_ RTR  --- 27 tcp 1540 [13a e 0 800] ------- [0:0 4:0 29 4] [15 0] 1 0
r 1.456828442 _14_ RTR  --- 28 tcp 1540 [13a e 0 800] ------- [0:0 4:0 30 14] [16 0] 1 0
f 1.456828442 _14_ RTR  --- 28 tcp 1540 [13a e 0 800] ------- [0:0 4:0 29 4] [16 0] 1 0
r 1.470794828 _4_ AGT  --- 21 tcp 1540 [13a 4 e 800] ------- [0:0 4:0 29 4] [13 0] 2 0
s 1.470794828 _4_ AGT  --- 34 ack 40 [0 0 0 0] ------- [4:0 0:0 32 0] [13 0] 0 0
r 1.470794828 _4_ RTR  --- 34 ack 40 [0 0 0 0] ------- [4:0 0:0 32 0] [13 0] 0 0
s 1.470794828 _4_ RTR  --- 34 ack 40 [0 0 0 0] ------- [4:0 0:0 30 14] [13 0] 0 0
r 1.472721214 _14_ RTR  --- 26 ack 40 [13a e 4 800] ------- [4:0 0:0 30 14] [11 0] 1 0
f 1.472721214 _14_ RTR  --- 26 ack 40 [13a e 4 800] ------- [4:0 0:0 29 0] [11 0] 1 0
r 1.474548395 _14_ RTR  --- 33 ack 40 [13a e 4 800] ------- [4:0 0:0 30 14] [12 0] 1 0
f 1.474548395 _14_ RTR  --- 33 ack 40 [13a e 4 800] ------- [4:0 0:0 29 0] [12 0] 1 0
r 1.488443463 _14_ RTR  --- 29 tcp 1540 [13a e 0 800] ------- [0:0 4:0 30 14] [17 0] 1 0
f 1.488443463 _14_ RTR  --- 29 tcp 1540 [13a e 0 800] ------- [0:0 4:0 29 4] [17 0] 1 0
r 1.502329849 _4_ AGT  --- 22 tcp 1540 [13a 4 e 800] ------- [0:0 4:0 29 4] [14 0] 2 0
s 1.502329849 _4_ AGT  --- 35 ack 40 [0 0 0 0] ------- [4:0 0:0 32 0] [14 0] 0 0
r 1.502329849 _4_ RTR  --- 35 ack 40 [0 0 0 0] ------- [4:0 0:0 32 0] [14 0] 0 0
s 1.502329849 _4_ RTR  --- 35 ack 40 [0 0 0 0] ------- [4:0 0:0 30 14] [14 0] 0 0
r 1.504236236 _14_ RTR  --- 34 ack 40 [13a e 4 800] ------- [4:0 0:0 30 14] [13 0] 1 0
f 1.504236236 _14_ RTR  --- 34 ack 40 [13a e 4 800] ------- [4:0 0:0 29 0] [13 0] 1 0
r 1.506301106 _0_ AGT  --- 25 ack 40 [13a 0 e 800] ------- [4:0 0:0 29 0] [10 0] 2 0
s 1.506301106 _0_ AGT  --- 36 tcp 1540 [0 0 0 0] ------- [0:0 4:0 32 0] [21 0] 0 0
r 1.506301106 _0_ RTR  --- 36 tcp 1540 [0 0 0 0] ------- [0:0 4:0 32 0] [21 0] 0 0
s 1.506301106 _0_ AGT  --- 37 tcp 1540 [0 0 0 0] ------- [0:0 4:0 32 0] [22 0] 0 0
r 1.506301106 _0_ RTR  --- 37 tcp 1540 [0 0 0 0] ------- [0:0 4:0 32 0] [22 0] 0 0
s 1.506301106 _0_ RTR  --- 36 tcp 1540 [0 0 0 0] ------- [0:0 4:0 30 14] [21 0] 0 0
s 1.506301106 _0_ RTR  --- 37 tcp 1540 [0 0 0 0] ------- [0:0 4:0 30 14] [22 0] 0 0
r 1.520245977 _14_ RTR  --- 30 tcp 1540 [13a e 0 800] ------- [0:0 4:0 30 14] [18 0] 1 0
f 1.520245977 _14_ RTR  --- 30 tcp 1540 [13a e 0 800] ------- [0:0 4:0 29 4] [18 0] 1 0
r 1.522303068 _14_ RTR  --- 35 ack 40 [13a e 4 800] ------- [4:0 0:0 30 14] [14 0] 1 0
f 1.522303068 _14_ RTR  --- 35 ack 40 [13a e 4 800] ------- [4:0 0:0 29 0] [14 0] 1 0
r 1.536278137 _14_ RTR  --- 31 tcp 1540 [13a e 0 800] ------- [0:0 4:0 30 14] [19 0] 1 0
f 1.536278137 _14_ RTR  --- 31 tcp 1540 [13a e 0 800] ------- [0:0 4:0 29 4] [19 0] 1 0
r 1.551009299 _14_ RTR  --- 32 tcp 1540 [13a e 0 800] ------- [0:0 4:0 30 14] [20 0] 1 0
f 1.551009299 _14_ RTR  --- 32 tcp 1540 [13a e 0 800] ------- [0:0 4:0 29 4] [20 0] 1 0
r 1.564834461 _14_ RTR  --- 36 tcp 1540 [13a e 0 800] ------- [0:0 4:0 30 14] [21 0] 1 0
f 1.564834461 _14_ RTR  --- 36 tcp 1540 [13a e 0 800] ------- [0:0 4:0 29 4] [21 0] 1 0
r 1.578719623 _14_ RTR  --- 37 tcp 1540 [13a e 0 800] ------- [0:0 4:0 30 14] [22 0] 1 0
f 1.578719623 _14_ RTR  --- 37 tcp 1540 [13a e 0 800] ------- [0:0 4:0 29 4] [22 0] 1 0
r 1.593326013 _4_ AGT  --- 27 tcp 1540 [13a 4 e 800] ------- [0:0 4:0 29 4] [15 0] 2 0
s 1.593326013 _4_ AGT  --- 38 ack 40 [0 0 0 0] ------- [4:0 0:0 32 0] [15 0] 0 0
r 1.593326013 _4_ RTR  --- 38 ack 40 [0 0 0 0] ------- [4:0 0:0 32 0] [15 0] 0 0
s 1.593326013 _4_ RTR  --- 38 ack 40 [0 0 0 0] ------- [4:0 0:0 30 14] [15 0] 0 0
r 1.607573199 _4_ AGT  --- 28 tcp 1540 [13a 4 e 800] ------- [0:0 4:0 29 4] [16 0] 2 0
s 1.607573199 _4_ AGT  --- 39 ack 40 [0 0 0 0] ------- [4:0 0:0 32 0] [16 0] 0 0
r 1.607573199 _4_ RTR  --- 39 ack 40 [0 0 0 0] ------- [4:0 0:0 32 0] [16 0] 0 0
s 1.607573199 _4_ RTR  --- 39 ack 40 [0 0 0 0] ------- [4:0 0:0 30 14] [16 0] 0 0
r 1.609418869 _0_ AGT  --- 26 ack 40 [13a 0 e 800] ------- [4:0 0:0 29 0] [11 0] 2 0
s 1.609418869 _0_ AGT  --- 40 tcp 1540 [0 0 0 0] ------- [0:0 4:0 32 0] [23 0] 0 0
r 1.609418869 _0_ RTR  --- 40 tcp 1540 [0 0 0 0] ------- [0:0 4:0 32 0] [23 0] 0 0
s 1.609418869 _0_ AGT  --- 41 tcp 1540 [0 0 0 0] ------- [0:0 4:0 32 0] [24 0] 0 0
r 1.609418869 _0_ RTR  --- 41 tcp 1540 [0 0 0 0] ------- [0:0 4:0 32 0] [24 0] 0 0
s 1.609418869 _0_ RTR  --- 40 tcp 1540 [0 0 0 0] ------- [0:0 4:0 30 14] [23 0] 0 0
s 1.609418869 _0_ RTR  --- 41 tcp 1540 [0 0 0 0] ------- [0:0 4:0 30 14] [24 0] 0 0
r 1.623263743 _14_ RTR  --- 40 tcp 1540 [13a e 0 800] ------- [0:0 4:0 30 14] [23 0] 1 0
f 1.623263743 _14_ RTR  --- 40 tcp 1540 [13a e 0 800] ------- [0:0 4:0 29 4] [23 0] 1 0
r 1.625128616 _0_ AGT  --- 33 ack 40 [13a 0 e 800] ------- [4:0 0:0 29 0] [12 0] 2 0
s 1.625128616 _0_ AGT  --- 42 tcp 1540 [0 0 0 0] ------- [0:0 4:0 32 0] [25 0] 0 0
r 1.625128616 _0_ RTR  --- 42 tcp 1540 [0 0 0 0] ------- [0:0 4:0 32 0] [25 0] 0 0
s 1.625128616 _0_ AGT  --- 43 tcp 1540 [0 0 0 0] ------- [0:0 4:0 32 0] [26 0] 0 0
r 1.625128616 _0_ RTR  --- 43 tcp 1540 [0 0 0 0] ------- [0:0 4:0 32 0] [26 0] 0 0
s 1.625128616 _0_ RTR  --- 42 tcp 1540 [0 0 0 0] ------- [0:0 4:0 30 14] [25 0] 0 0
s 1.625128616 _0_ RTR  --- 43 tcp 1540 [0 0 0 0] ------- [0:0 4:0 30 14] [26 0] 0 0
r 1.638975299 _4_ AGT  --- 29 tcp 1540 [13a 4 e 800] ------- [0:0 4:0 29 4] [17 0] 2 0
s 1.638975299 _4_ AGT  --- 44 ack 40 [0 0 0 0] ------- [4:0 0:0 32 0] [17 0] 0 0
r 1.638975299 _4_ RTR  --- 44 ack 40 [0 0 0 0] ------- [4:0 0:0 32 0] [17 0] 0 0
s 1.638975299 _4_ RTR  --- 44 ack 40 [0 0 0 0] ------- [4:0 0:0 30 14] [17 0] 0 0
r 1.640820970 _0_ AGT  --- 34 ack 40 [13a 0 e 800] ------- [4:0 0:0 29 0] [13 0] 2 0
s 1.640820970 _0_ AGT  --- 45 tcp 1540 [0 0 0 0] ------- [0:0 4:0 32 0] [27 0] 0 0
r 1.640820970 _0_ RTR  --- 45 tcp 1540 [0 0 0 0] ------- [0:0 4:0 32 0] [27 0] 0 0
s 1.640820970 _0_ AGT  --- 46 tcp 1540 [0 0 0 0] ------- [0:0 4:0 32 0] [28 0] 0 0
r 1.640820970 _0_ RTR  --- 46 tcp 1540 [0 0 0 0] ------- [0:0 4:0 32 0] [28 0] 0 0
s 1.640820970 _0_ RTR  --- 45 tcp 1540 [0 0 0 0] ------- [0:0 4:0 30 14] [27 0] 0 0
s 1.640820970 _0_ RTR  --- 46 tcp 1540 [0 0 0 0] ------- [0:0 4:0 30 14] [28 0] 0 0
r 1.654845844 _14_ RTR  --- 41 tcp 1540 [13a e 0 800] ------- [0:0 4:0 30 14] [24 0] 1 0
f 1.654845844 _14_ RTR  --- 41 tcp 1540 [13a e 0 800] ------- [0:0 4:0 29 4] [24 0] 1 0
r 1.668852236 _4_ AGT  --- 30 tcp 1540 [13a 4 e 800] ------- [0:0 4:0 29 4] [18 0] 2 0
s 1.668852236 _4_ AGT  --- 47 ack 40 [0 0 0 0] ------- [4:0 0:0 32 0] [18 0] 0 0
r 1.668852236 _4_ RTR  --- 47 ack 40 [0 0 0 0] ------- [4:0 0:0 32 0] [18 0] 0 0
s 1.668852236 _4_ RTR  --- 47 ack 40 [0 0 0 0] ------- [4:0 0:0 30 14] [18 0] 0 0
r 1.670698628 _14_ RTR  --- 38 ack 40 [13a e 4 800] ------- [4:0 0:0 30 14] [15 0] 1 0
f 1.670698628 _14_ RTR  --- 38 ack 40 [13a e 4 800] ------- [4:0 0:0 29 0] [15 0] 1 0
r 1.684833701 _14_ RTR  --- 42 tcp 1540 [13a e 0 800] ------- [0:0 4:0 30 14] [25 0] 1 0
f 1.684833701 _14_ RTR  --- 42 tcp 1540 [13a e 0 800] ------- [0:0 4:0 29 4] [25 0] 1 0
r 1.686718576 _0_ AGT  --- 35 ack 40 [13a 0 e 800] ------- [4:0 0:0 29 0] [14 0] 2 0
s 1.686718576 _0_ AGT  --- 48 tcp 1540 [0 0 0 0] ------- [0:0 4:0 32 0] [29 0] 0 0
r 1.686718576 _0_ RTR  --- 48 tcp 1540 [0 0 0 0] ------- [0:0 4:0 32 0] [29 0] 0 0
s 1.686718576 _0_ AGT  --- 49 tcp 1540 [0 0 0 0] ------- [0:0 4:0 32 0] [30 0] 0 0
r 1.686718576 _0_ RTR  --- 49 tcp 1540 [0 0 0 0] ------- [0:0 4:0 32 0] [30 0] 0 0
s 1.686718576 _0_ RTR  --- 48 tcp 1540 [0 0 0 0] ------- [0:0 4:0 30 14] [29 0] 0 0
s 1.686718576 _0_ RTR  --- 49 tcp 1540 [0 0 0 0] ------- [0:0 4:0 30 14] [30 0] 0 0
r 1.700725261 _4_ AGT  --- 31 tcp 1540 [13a 4 e 800] ------- [0:0 4:0 29 4] [19 0] 2 0
s 1.700725261 _4_ AGT  --- 50 ack 40 [0 0 0 0] ------- [4:0 0:0 32 0] [19 0] 0 0
r 1.700725261 _4_ RTR  --- 50 ack 40 [0 0 0 0] ------- [4:0 0:0 32 0] [19 0] 0 0
s 1.700725261 _4_ RTR  --- 50 ack 40 [0 0 0 0] ------- [4:0 0:0 30 14] [19 0] 0 0
r 1.702731655 _14_ RTR  --- 39 ack 40 [13a e 4 800] ------- [4:0 0:0 30 14] [16 0] 1 0
f 1.702731655 _14_ RTR  --- 39 ack 40 [13a e 4 800] ------- [4:0 0:0 29 0] [16 0] 1 0
r 1.716686728 _14_ RTR  --- 43 tcp 1540 [13a e 0 800] ------- [0:0 4:0 30 14] [26 0] 1 0
f 1.716686728 _14_ RTR  --- 43 tcp 1540 [13a e 0 800] ------- [0:0 4:0 29 4] [26 0] 1 0
r 1.718623825 _14_ RTR  --- 44 ack 40 [13a e 4 800] ------- [4:0 0:0 30 14] [17 0] 1 0
f 1.718623825 _14_ RTR  --- 44 ack 40 [13a e 4 800] ------- [4:0 0:0 29 0] [17 0] 1 0
r 1.732538898 _14_ RTR  --- 45 tcp 1540 [13a e 0 800] ------- [0:0 4:0 30 14] [27 0] 1 0
f 1.732538898 _14_ RTR  --- 45 tcp 1540 [13a e 0 800] ------- [0:0 4:0 29 4] [27 0] 1 0
r 1.746364067 _14_ RTR  --- 46 tcp 1540 [13a e 0 800] ------- [0:0 4:0 30 14] [28 0] 1 0
f 1.746364067 _14_ RTR  --- 46 tcp 1540 [13a e 0 800] ------- [0:0 4:0 29 4] [28 0] 1 0
r 1.760250463 _4_ AGT  --- 32 tcp 1540 [13a 4 e 800] ------- [0:0 4:0 29 4] [20 0] 2 0