s 1.093308901 _7_ AGT  --- 25 ack 40 [0 0 0 0] ------- [7:0 2:0 32 0] [5 0] 0 0
r 1.093308901 _7_ RTR  --- 25 ack 40 [0 0 0 0] ------- [7:0 2:0 32 0] [5 0] 0 0
s 1.093308901 _7_ RTR  --- 25 ack 40 [0 0 0 0] ------- [7:0 2:0 30 5] [5 0] 0 0
r 1.095143926 _7_ AGT  --- 18 tcp 41 [13a 7 5 800] ------- [2:0 7:0 29 7] [6 0] 2 0
s 1.095143926 _7_ AGT  --- 26 ack 40 [0 0 0 0] ------- [7:0 2:0 32 0] [6 0] 0 0
r 1.095143926 _7_ RTR  --- 26 ack 40 [0 0 0 0] ------- [7:0 2:0 32 0] [6 0] 0 0
s 1.095143926 _7_ RTR  --- 26 ack 40 [0 0 0 0] ------- [7:0 2:0 30 5] [6 0] 0 0
r 1.098570837 _0_ AGT  --- 8 ack 40 [13a 0 9 800] ------- [9:0 0:0 30 0] [0 0] 1 0
s 1.098570837 _0_ AGT  --- 27 tcp 41 [0 0 0 0] ------- [0:0 9:0 32 0] [1 0] 0 0
r 1.098570837 _0_ RTR  --- 27 tcp 41 [0 0 0 0] ------- [0:0 9:0 32 0] [1 0] 0 0
s 1.098570837 _0_ AGT  --- 28 tcp 41 [0 0 0 0] ------- [0:0 9:0 32 0] [2 0] 0 0
r 1.098570837 _0_ RTR  --- 28 tcp 41 [0 0 0 0] ------- [0:0 9:0 32 0] [2 0] 0 0
s 1.098570837 _0_ RTR  --- 27 tcp 41 [0 0 0 0] ------- [0:0 9:0 30 9] [1 0] 0 0
s 1.098570837 _0_ RTR  --- 28 tcp 41 [0 0 0 0] ------- [0:0 9:0 30 9] [2 0] 0 0
r 1.099137622 _4_ RTR  --- 0 AODV 44 [13a 4 6 800] ------- [5:255 4:255 29 4] [0x4 2 [5 4] 10.000000] (REPLY)
s 1.099137622 _4_ RTR  --- 4 tcp 40 [0 0 0 0] ------- [4:0 5:0 30 6] [0 0] 0 0
r 1.100963651 _9_ AGT  --- 27 tcp 41 [13a 9 0 800] ------- [0:0 9:0 30 9] [1 0] 1 0
s 1.100963651 _9_ AGT  --- 29 ack 40 [0 0 0 0] ------- [9:0 0:0 32 0] [1 0] 0 0
r 1.100963651 _9_ RTR  --- 29 ack 40 [0 0 0 0] ------- [9:0 0:0 32 0] [1 0] 0 0
s 1.100963651 _9_ RTR  --- 29 ack 40 [0 0 0 0] ------- [9:0 0:0 30 0] [1 0] 0 0
r 1.102195923 _0_ RTR  --- 0 AODV 48 [0 ffffffff 9 800] ------- [9:255 -1:255 28 0] [0x2 3 1 [8 0] [1 4]] (REQUEST)
r 1.103036352 _6_ RTR  --- 4 tcp 40 [13a 6 4 800] ------- [4:0 5:0 30 6] [0 0] 1 0
f 1.103036352 _6_ RTR  --- 4 tcp 40 [13a 6 4 800] ------- [4:0 5:0 29 5] [0 0] 1 0
r 1.103946466 _0_ AGT  --- 29 ack 40 [13a 0 9 800] ------- [9:0 0:0 30 0] [1 0] 1 0
s 1.103946466 _0_ AGT  --- 30 tcp 41 [0 0 0 0] ------- [0:0 9:0 32 0] [3 0] 0 0
r 1.103946466 _0_ RTR  --- 30 tcp 41 [0 0 0 0] ------- [0:0 9:0 32 0] [3 0] 0 0
s 1.103946466 _0_ AGT  --- 31 tcp 41 [0 0 0 0] ------- [0:0 9:0 32 0] [4 0] 0 0
r 1.103946466 _0_ RTR  --- 31 tcp 41 [0 0 0 0] ------- [0:0 9:0 32 0] [4 0] 0 0
s 1.103946466 _0_ RTR  --- 30 tcp 41 [0 0 0 0] ------- [0:0 9:0 30 9] [3 0] 0 0
s 1.103946466 _0_ RTR  --- 31 tcp 41 [0 0 0 0] ------- [0:0 9:0 30 9] [4 0] 0 0
r 1.106039280 _9_ AGT  --- 28 tcp 41 [13a 9 0 800] ------- [0:0 9:0 30 9] [2 0] 1 0
s 1.106039280 _9_ AGT  --- 32 ack 40 [0 0 0 0] ------- [9:0 0:0 32 0] [2 0] 0 0
r 1.106039280 _9_ RTR  --- 32 ack 40 [0 0 0 0] ------- [9:0 0:0 32 0] [2 0] 0 0
s 1.106039280 _9_ RTR  --- 32 ack 40 [0 0 0 0] ------- [9:0 0:0 30 0] [2 0] 0 0
r 1.108104881 _6_ AGT  --- 7 tcp 41 [13a 6 3 800] ------- [3:0 6:0 30 6] [2 0] 1 0
s 1.108104881 _6_ AGT  --- 33 ack 40 [0 0 0 0] ------- [6:0 3:0 32 0] [2 0] 0 0
r 1.108104881 _6_ RTR  --- 33 ack 40 [0 0 0 0] ------- [6:0 3:0 32 0] [2 0] 0 0
s 1.108104881 _6_ RTR  --- 33 ack 40 [0 0 0 0] ------- [6:0 3:0 30 3] [2 0] 0 0
r 1.110059844 _6_ AGT  --- 23 tcp 41 [13a 6 3 800] ------- [3:0 6:0 30 6] [3 0] 1 0
s 1.110059844 _6_ AGT  --- 34 ack 40 [0 0 0 0] ------- [6:0 3:0 32 0] [3 0] 0 0
r 1.110059844 _6_ RTR  --- 34 ack 40 [0 0 0 0] ------- [6:0 3:0 32 0] [3 0] 0 0
s 1.110059844 _6_ RTR  --- 34 ack 40 [0 0 0 0] ------- [6:0 3:0 30 3] [3 0] 0 0
r 1.112054808 _6_ AGT  --- 24 tcp 41 [13a 6 3 800] ------- [3:0 6:0 30 6] [4 0] 1 0
s 1.112054808 _6_ AGT  --- 35 ack 40 [0 0 0 0] ------- [6:0 3:0 32 0] [4 0] 0 0
r 1.112054808 _6_ RTR  --- 35 ack 40 [0 0 0 0] ------- [6:0 3:0 32 0] [4 0] 0 0
s 1.112054808 _6_ RTR  --- 35 ack 40 [0 0 0 0] ------- [6:0 3:0 30 3] [4 0] 0 0
r 1.113948087 _5_ RTR  --- 20 tcp 41 [13a 5 2 800] ------- [2:0 7:0 30 5] [7 0] 1 0
f 1.113948087 _5_ RTR  --- 20 tcp 41 [13a 5 2 800] ------- [2:0 7:0 29 7] [7 0] 1 0
r 1.116166584 _9_ AGT  --- 30 tcp 41 [13a 9 0 800] ------- [0:0 9:0 30 9] [3 0] 1 0
s 1.116166584 _9_ AGT  --- 36 ack 40 [0 0 0 0] ------- [9:0 0:0 32 0] [3 0] 0 0
r 1.116166584 _9_ RTR  --- 36 ack 40 [0 0 0 0] ------- [9:0 0:0 32 0] [3 0] 0 0
s 1.116166584 _9_ RTR  --- 36 ack 40 [0 0 0 0] ------- [9:0 0:0 30 0] [3 0] 0 0
r 1.118005109 _5_ RTR  --- 22 ack 40 [13a 5 7 800] ------- [7:0 2:0 30 5] [4 0] 1 0
f 1.118005109 _5_ RTR  --- 22 ack 40 [13a 5 7 800] ------- [7:0 2:0 29 2] [4 0] 1 0
r 1.120143229 _7_ AGT  --- 20 tcp 41 [13a 7 5 800] ------- [2:0 7:0 29 7] [7 0] 2 0
s 1.120143229 _7_ AGT  --- 37 ack 40 [0 0 0 0] ------- [7:0 2:0 32 0] [7 0] 0 0
r 1.120143229 _7_ RTR  --- 37 ack 40 [0 0 0 0] ------- [7:0 2:0 32 0] [7 0] 0 0
s 1.120143229 _7_ RTR  --- 37 ack 40 [0 0 0 0] ------- [7:0 2:0 30 5] [7 0] 0 0
r 1.122026971 _9_ AGT  --- 31 tcp 41 [13a 9 0 800] ------- [0:0 9:0 30 9] [4 0] 1 0
s 1.122026971 _9_ AGT  --- 38 ack 40 [0 0 0 0] ------- [9:0 0:0 32 0] [4 0] 0 0
r 1.122026971 _9_ RTR  --- 38 ack 40 [0 0 0 0] ------- [9:0 0:0 32 0] [4 0] 0 0
s 1.122026971 _9_ RTR  --- 38 ack 40 [0 0 0 0] ------- [9:0 0:0 30 0] [4 0] 0 0
r 1.124214749 _2_ AGT  --- 22 ack 40 [13a 2 5 800] ------- [7:0 2:0 29 2] [4 0] 2 0
s 1.124214749 _2_ AGT  --- 39 tcp 41 [0 0 0 0] ------- [2:0 7:0 32 0] [9 0] 0 0
r 1.124214749 _2_ RTR  --- 39 tcp 41 [0 0 0 0] ------- [2:0 7:0 32 0] [9 0] 0 0
s 1.124214749 _2_ AGT  --- 40 tcp 41 [0 0 0 0] ------- [2:0 7:0 32 0] [10 0] 0 0
r 1.124214749 _2_ RTR  --- 40 tcp 41 [0 0 0 0] ------- [2:0 7:0 32 0] [10 0] 0 0
s 1.124214749 _2_ RTR  --- 39 tcp 41 [0 0 0 0] ------- [2:0 7:0 30 5] [9 0] 0 0
s 1.124214749 _2_ RTR  --- 40 tcp 41 [0 0 0 0] ------- [2:0 7:0 30 5] [10 0] 0 0
r 1.126207513 _5_ RTR  --- 21 tcp 41 [13a 5 2 800] ------- [2:0 7:0 30 5] [8 0] 1 0
f 1.126207513 _5_ RTR  --- 21 tcp 41 [13a 5 2 800] ------- [2:0 7:0 29 7] [8 0] 1 0
r 1.128221779 _7_ AGT  --- 21 tcp 41 [13a 7 5 800] ------- [2:0 7:0 29 7] [8 0] 2 0
s 1.128221779 _7_ AGT  --- 41 ack 40 [0 0 0 0] ------- [7:0 2:0 32 0] [8 0] 0 0
r 1.128221779 _7_ RTR  --- 41 ack 40 [0 0 0 0] ------- [7:0 2:0 32 0] [8 0] 0 0
s 1.128221779 _7_ RTR  --- 41 ack 40 [0 0 0 0] ------- [7:0 2:0 30 5] [8 0] 0 0
r 1.130403721 _0_ AGT  --- 32 ack 40 [13a 0 9 800] ------- [9:0 0:0 30 0] [2 0] 1 0
s 1.130403721 _0_ AGT  --- 42 tcp 41 [0 0 0 0] ------- [0:0 9:0 32 0] [5 0] 0 0
r 1.130403721 _0_ RTR  --- 42 tcp 41 [0 0 0 0] ------- [0:0 9:0 32 0] [5 0] 0 0
s 1.130403721 _0_ AGT  --- 43 tcp 41 [0 0 0 0] ------- [0:0 9:0 32 0] [6 0] 0 0
r 1.130403721 _0_ RTR  --- 43 tcp 41 [0 0 0 0] ------- [0:0 9:0 32 0] [6 0] 0 0
s 1.130403721 _0_ RTR  --- 42 tcp 41 [0 0 0 0] ------- [0:0 9:0 30 9] [5 0] 0 0
s 1.130403721 _0_ RTR  --- 43 tcp 41 [0 0 0 0] ------- [0:0 9:0 30 9] [6 0] 0 0
r 1.132308809 _0_ AGT  --- 36 ack 40 [13a 0 9 800] ------- [9:0 0:0 30 0] [3 0] 1 0
s 1.132308809 _0_ AGT  --- 44 tcp 41 [0 0 0 0] ------- [0:0 9:0 32 0] [7 0] 0 0
r 1.132308809 _0_ RTR  --- 44 tcp 41 [0 0 0 0] ------- [0:0 9:0 32 0] [7 0] 0 0
s 1.132308809 _0_ AGT  --- 45 tcp 41 [0 0 0 0] ------- [0:0 9:0 32 0] [8 0] 0 0
r 1.132308809 _0_ RTR  --- 45 tcp 41 [0 0 0 0] ------- [0:0 9:0 32 0] [8 0] 0 0
s 1.132308809 _0_ RTR  --- 44 tcp 41 [0 0 0 0] ------- [0:0 9:0 30 9] [7 0] 0 0
s 1.132308809 _0_ RTR  --- 45 tcp 41 [0 0 0 0] ------- [0:0 9:0 30 9] [8 0] 0 0
r 1.134733897 _0_ AGT  --- 38 ack 40 [13a 0 9 800] ------- [9:0 0:0 30 0] [4 0] 1 0
s 1.134733897 _0_ AGT  --- 46 tcp 41 [0 0 0 0] ------- [0:0 9:0 32 0] [9 0] 0 0
r 1.134733897 _0_ RTR  --- 46 tcp 41 [0 0 0 0] ------- [0:0 9:0 32 0] [9 0] 0 0
s 1.134733897 _0_ AGT  --- 47 tcp 41 [0 0 0 0] ------- [0:0 9:0 32 0] [10 0] 0 0
r 1.134733897 _0_ RTR  --- 47 tcp 41 [0 0 0 0] ------- [0:0 9:0 32 0] [10 0] 0 0
s 1.134733897 _0_ RTR  --- 46 tcp 41 [0 0 0 0] ------- [0:0 9:0 30 9] [9 0] 0 0
s 1.134733897 _0_ RTR  --- 47 tcp 41 [0 0 0 0] ------- [0:0 9:0 30 9] [10 0] 0 0
r 1.136586714 _9_ AGT  --- 42 tcp 41 [13a 9 0 800] ------- [0:0 9:0 30 9] [5 0] 1 0
s 1.136586714 _9_ AGT  --- 48 ack 40 [0 0 0 0] ------- [9:0 0:0 32 0] [5 0] 0 0
r 1.136586714 _9_ RTR  --- 48 ack 40 [0 0 0 0] ------- [9:0 0:0 32 0] [5 0] 0 0
s 1.136586714 _9_ RTR  --- 48 ack 40 [0 0 0 0] ------- [9:0 0:0 30 0] [5 0] 0 0
r 1.138799803 _9_ AGT  --- 43 tcp 41 [13a 9 0 800] ------- [0:0 9:0 30 9] [6 0] 1 0
s 1.138799803 _9_ AGT  --- 49 ack 40 [0 0 0 0] ------- [9:0 0:0 32 0] [6 0] 0 0
r 1.138799803 _9_ RTR  --- 49 ack 40 [0 0 0 0] ------- [9:0 0:0 32 0] [6 0] 0 0
s 1.138799803 _9_ RTR  --- 49 ack 40 [0 0 0 0] ------- [9:0 0:0 30 0] [6 0] 0 0
r 1.140692892 _9_ AGT  --- 44 tcp 41 [13a 9 0 800] ------- [0:0 9:0 30 9] [7 0] 1 0
s 1.140692892 _9_ AGT  --- 50 ack 40 [0 0 0 0] ------- [9:0 0:0 32 0] [7 0] 0 0
r 1.140692892 _9_ RTR  --- 50 ack 40 [0 0 0 0] ------- [9:0 0:0 32 0] [7 0] 0 0
s 1.140692892 _9_ RTR  --- 50 ack 40 [0 0 0 0] ------- [9:0 0:0 30 0] [7 0] 0 0
r 1.142617709 _0_ AGT  --- 48 ack 40 [13a 0 9 800] ------- [9:0 0:0 30 0] [5 0] 1 0
s 1.142617709 _0_ AGT  --- 51 tcp 41 [0 0 0 0] ------- [0:0 9:0 32 0] [11 0] 0 0
r 1.142617709 _0_ RTR  --- 51 tcp 41 [0 0 0 0] ------- [0:0 9:0 32 0] [11 0] 0 0
s 1.142617709 _0_ AGT  --- 52 tcp 41 [0 0 0 0] ------- [0:0 9:0 32 0] [12 0] 0 0
r 1.142617709 _0_ RTR  --- 52 tcp 41 [0 0 0 0] ------- [0:0 9:0 32 0] [12 0] 0 0
s 1.142617709 _0_ RTR  --- 51 tcp 41 [0 0 0 0] ------- [0:0 9:0 30 9] [11 0] 0 0
s 1.142617709 _0_ RTR  --- 52 tcp 41 [0 0 0 0] ------- [0:0 9:0 30 9] [12 0] 0 0
r 1.144562798 _0_ AGT  --- 49 ack 40 [13a 0 9 800] ------- [9:0 0:0 30 0] [6 0] 1 0
s 1.144562798 _0_ AGT  --- 53 tcp 41 [0 0 0 0] ------- [0:0 9:0 32 0] [13 0] 0 0
r 1.144562798 _0_ RTR  --- 53 tcp 41 [0 0 0 0] ------- [0:0 9:0 32 0] [13 0] 0 0
s 1.144562798 _0_ AGT  --- 54 tcp 41 [0 0 0 0] ------- [0:0 9:0 32 0] [14 0] 0 0
r 1.144562798 _0_ RTR  --- 54 tcp 41 [0 0 0 0] ------- [0:0 9:0 32 0] [14 0] 0 0
s 1.144562798 _0_ RTR  --- 53 tcp 41 [0 0 0 0] ------- [0:0 9:0 30 9] [13 0] 0 0
s 1.144562798 _0_ RTR  --- 54 tcp 41 [0 0 0 0] ------- [0:0 9:0 30 9] [14 0] 0 0
r 1.146575615 _9_ AGT  --- 45 tcp 41 [13a 9 0 800] ------- [0:0 9:0 30 9] [8 0] 1 0
s 1.146575615 _9_ AGT  --- 55 ack 40 [0 0 0 0] ------- [9:0 0:0 32 0] [8 0] 0 0
r 1.146575615 _9_ RTR  --- 55 ack 40 [0 0 0 0] ------- [9:0 0:0 32 0] [8 0] 0 0
s 1.146575615 _9_ RTR  --- 55 ack 40 [0 0 0 0] ------- [9:0 0:0 30 0] [8 0] 0 0
r 1.148428705 _9_ AGT  --- 46 tcp 41 [13a 9 0 800] ------- [0:0 9:0 30 9] [9 0] 1 0
s 1.148428705 _9_ AGT  --- 56 ack 40 [0 0 0 0] ------- [9:0 0:0 32 0] [9 0] 0 0
r 1.148428705 _9_ RTR  --- 56 ack 40 [0 0 0 0] ------- [9:0 0:0 32 0] [9 0] 0 0
s 1.148428705 _9_ RTR  --- 56 ack 40 [0 0 0 0] ------- [9:0 0:0 30 0] [9 0] 0 0
r 1.150261795 _9_ AGT  --- 47 tcp 41 [13a 9 0 800] ------- [0:0 9:0 30 9] [10 0] 1 0
s 1.150261795 _9_ AGT  --- 57 ack 40 [0 0 0 0] ------- [9:0 0:0 32 0] [10 0] 0 0
r 1.150261795 _9_ RTR  --- 57 ack 40 [0 0 0 0] ------- [9:0 0:0 32 0] [10 0] 0 0
s 1.150261795 _9_ RTR  --- 57 ack 40 [0 0 0 0] ------- [9:0 0:0 30 0] [10 0] 0 0
r 1.152346612 _0_ AGT  --- 50 ack 40 [13a 0 9 800] ------- [9:0 0:0 30 0] [7 0] 1 0
s 1.152346612 _0_ AGT  --- 58 tcp 41 [0 0 0 0] ------- [0:0 9:0 32 0] [15 0] 0 0
r 1.152346612 _0_ RTR  --- 58 tcp 41 [0 0 0 0] ------- [0:0 9:0 32 0] [15 0] 0 0
s 1.152346612 _0_ AGT  --- 59 tcp 41 [0 0 0 0] ------- [0:0 9:0 32 0] [16 0] 0 0
r 1.152346612 _0_ RTR  --- 59 tcp 41 [0 0 0 0] ------- [0:0 9:0 32 0] [16 0] 0 0
s 1.152346612 _0_ RTR  --- 58 tcp 41 [0 0 0 0] ------- [0:0 9:0 30 9] [15 0] 0 0
s 1.152346612 _0_ RTR  --- 59 tcp 41 [0 0 0 0] ------- [0:0 9:0 30 9] [16 0] 0 0
r 1.154479430 _9_ AGT  --- 51 tcp 41 [13a 9 0 800] ------- [0:0 9:0 30 9] [11 0] 1 0
s 1.154479430 _9_ AGT  --- 60 ack 40 [0 0 0 0] ------- [9:0 0:0 32 0] [11 0] 0 0
r 1.154479430 _9_ RTR  --- 60 ack 40 [0 0 0 0] ------- [9:0 0:0 32 0] [11 0] 0 0
s 1.154479430 _9_ RTR  --- 60 ack 40 [0 0 0 0] ------- [9:0 0:0 30 0] [11 0] 0 0
r 1.156329527 _5_ AGT  --- 4 tcp 40 [13a 5 6 800] ------- [4:0 5:0 29 5] [0 0] 2 0
s 1.156329527 _5_ AGT  --- 61 ack 40 [0 0 0 0] ------- [5:0 4:0 32 0] [0 0] 0 0
r 1.156329527 _5_ RTR  --- 61 ack 40 [0 0 0 0] ------- [5:0 4:0 32 0] [0 0] 0 0
s 1.156329527 _5_ RTR  --- 61 ack 40 [0 0 0 0] ------- [5:0 4:0 30 6] [0 0] 0 0
r 1.158256093 _3_ AGT  --- 33 ack 40 [13a 3 6 800] ------- [6:0 3:0 30 3] [2 0] 1 0
s 1.158256093 _3_ AGT  --- 62 tcp 41 [0 0 0 0] ------- [3:0 6:0 32 0] [5 0] 0 0
r 1.158256093 _3_ RTR  --- 62 tcp 41 [0 0 0 0] ------- [3:0 6:0 32 0] [5 0] 0 0
s 1.158256093 _3_ AGT  --- 63 tcp 41 [0 0 0 0] ------- [3:0 6:0 32 0] [6 0] 0 0
r 1.158256093 _3_ RTR  --- 63 tcp 41 [0 0 0 0] ------- [3:0 6:0 32 0] [6 0] 0 0
s 1.158256093 _3_ RTR  --- 62 tcp 41 [0 0 0 0] ------- [3:0 6:0 30 6] [5 0] 0 0
s 1.158256093 _3_ RTR  --- 63 tcp 41 [0 0 0 0] ------- [3:0 6:0 30 6] [6 0] 0 0
r 1.160123060 _3_ AGT  --- 34 ack 40 [13a 3 6 800] ------- [6:0 3:0 30 3] [3 0] 1 0
s 1.160123060 _3_ AGT  --- 64 tcp 41 [0 0 0 0] ------- [3:0 6:0 32 0] [7 0] 0 0
r 1.160123060 _3_ RTR  --- 64 tcp 41 [0 0 0 0] ------- [3:0 6:0 32 0] [7 0] 0 0
s 1.160123060 _3_ AGT  --- 65 tcp 41 [0 0 0 0] ------- [3:0 6:0 32 0] [8 0] 0 0
r 1.160123060 _3_ RTR  --- 65 tcp 41 [0 0 0 0] ------- [3:0 6:0 32 0] [8 0] 0 0
s 1.160123060 _3_ RTR  --- 64 tcp 41 [0 0 0 0] ------- [3:0 6:0 30 6] [7 0] 0 0
s 1.160123060 _3_ RTR  --- 65 tcp 41 [0 0 0 0] ------- [3:0 6:0 30 6] [8 0] 0 0
r 1.161572041 _9_ AGT  --- 52 tcp 41 [13a 9 0 800] ------- [0:0 9:0 30 9] [12 0] 1 0
s 1.161572041 _9_ AGT  --- 66 ack 40 [0 0 0 0] ------- [9:0 0:0 32 0] [12 0] 0 0
r 1.161572041 _9_ RTR  --- 66 ack 40 [0 0 0 0] ------- [9:0 0:0 32 0] [12 0] 0 0
s 1.161572041 _9_ RTR  --- 66 ack 40 [0 0 0 0] ------- [9:0 0:0 30 0] [12 0] 0 0
r 1.163808473 _6_ RTR  --- 61 ack 40 [13a 6 5 800] ------- [5:0 4:0 30 6] [0 0] 1 0
f 1.163808473 _6_ RTR  --- 61 ack 40 [13a 6 5 800] ------- [5:0 4:0 29 4] [0 0] 1 0
r 1.165812631 _9_ AGT  --- 53 tcp 41 [13a 9 0 800] ------- [0:0 9:0 30 9] [13 0] 1 0
s 1.165812631 _9_ AGT  --- 67 ack 40 [0 0 0 0] ------- [9:0 0:0 32 0] [13 0] 0 0
r 1.165812631 _9_ RTR  --- 67 ack 40 [0 0 0 0] ------- [9:0 0:0 32 0] [13 0] 0 0
s 1.165812631 _9_ RTR  --- 67 ack 40 [0 0 0 0] ------- [9:0 0:0 30 0] [13 0] 0 0
r 1.167818230 _6_ AGT  --- 62 tcp 41 [13a 6 3 800] ------- [3:0 6:0 30 6] [5 0] 1 0
s 1.167818230 _6_ AGT  --- 68 ack 40 [0 0 0 0] ------- [6:0 3:0 32 0] [5 0] 0 0
r 1.167818230 _6_ RTR  --- 68 ack 40 [0 0 0 0] ------- [6:0 3:0 32 0] [5 0] 0 0
s 1.167818230 _6_ RTR  --- 68 ack 40 [0 0 0 0] ------- [6:0 3:0 30 3] [5 0] 0 0
r 1.169801953 _9_ AGT  --- 54 tcp 41 [13a 9 0 800] ------- [0:0 9:0 30 9] [14 0] 1 0
s 1.169801953 _9_ AGT  --- 69 ack 40 [0 0 0 0] ------- [9:0 0:0 32 0] [14 0] 0 0
r 1.169801953 _9_ RTR  --- 69 ack 40 [0 0 0 0] ------- [9:0 0:0 32 0] [14 0] 0 0
s 1.169801953 _9_ RTR  --- 69 ack 40 [0 0 0 0] ------- [9:0 0:0 30 0] [14 0] 0 0
r 1.171907552 _6_ AGT  --- 63 tcp 41 [13a 6 3 800] ------- [3:0 6:0 30 6] [6 0] 1 0
s 1.171907552 _6_ AGT  --- 70 ack 40 [0 0 0 0] ------- [6:0 3:0 32 0] [6 0] 0 0
r 1.171907552 _6_ RTR  --- 70 ack 40 [0 0 0 0] ------- [6:0 3:0 32 0] [6 0] 0 0
s 1.171907552 _6_ RTR  --- 70 ack 40 [0 0 0 0] ------- [6:0 3:0 30 3] [6 0] 0 0
r 1.173800829 _5_ RTR  --- 39 tcp 41 [13a 5 2 800] ------- [2:0 7:0 30 5] [9 0] 1 0
f 1.173800829 _5_ RTR  --- 39 tcp 41 [13a 5 2 800] ------- [2:0 7:0 29 7] [9 0] 1 0
r 1.175735090 _7_ AGT  --- 39 tcp 41 [13a 7 5 800] ------- [2:0 7:0 29 7] [9 0] 2 0
s 1.175735090 _7_ AGT  --- 71 ack 40 [0 0 0 0] ------- [7:0 2:0 32 0] [9 0] 0 0
r 1.175735090 _7_ RTR  --- 71 ack 40 [0 0 0 0] ------- [7:0 2:0 32 0] [9 0] 0 0
s 1.175735090 _7_ RTR  --- 71 ack 40 [0 0 0 0] ------- [7:0 2:0 30 5] [9 0] 0 0
r 1.177738837 _9_ AGT  --- 58 tcp 41 [13a 9 0 800] ------- [0:0 9:0 30 9] [15 0] 1 0
s 1.177738837 _9_ AGT  --- 72 ack 40 [0 0 0 0] ------- [9:0 0:0 32 0] [15 0] 0 0
r 1.177738837 _9_ RTR  --- 72 ack 40 [0 0 0 0] ------- [9:0 0:0 32 0] [15 0] 0 0
s 1.177738837 _9_ RTR  --- 72 ack 40 [0 0 0 0] ------- [9:0 0:0 30 0] [15 0] 0 0
r 1.179904435 _6_ AGT  --- 64 tcp 41 [13a 6 3 800] ------- [3:0 6:0 30 6] [7 0] 1 0
s 1.179904435 _6_ AGT  --- 73 ack 40 [0 0 0 0] ------- [6:0 3:0 32 0] [7 0] 0 0
r 1.179904435 _6_ RTR  --- 73 ack 40 [0 0 0 0] ------- [6:0 3:0 32 0] [7 0] 0 0
s 1.179904435 _6_ RTR  --- 73 ack 40 [0 0 0 0] ------- [6:0 3:0 30 3] [7 0] 0 0
r 1.181928158 _9_ AGT  --- 59 tcp 41 [13a 9 0 800] ------- [0:0 9:0 30 9] [16 0] 1 0
s 1.181928158 _9_ AGT  --- 74 ack 40 [0 0 0 0] ------- [9:0 0:0 32 0] [16 0] 0 0
r 1.181928158 _9_ RTR  --- 74 ack 40 [0 0 0 0] ------- [9:0 0:0 32 0] [16 0] 0 0
s 1.181928158 _9_ RTR  --- 74 ack 40 [0 0 0 0] ------- [9:0 0:0 30 0] [16 0] 0 0
r 1.183893757 _6_ AGT  --- 65 tcp 41 [13a 6 3 800] ------- [3:0 6:0 30 6] [8 0] 1 0
s 1.183893757 _6_ AGT  --- 75 ack 40 [0 0 0 0] ------- [6:0 3:0 32 0] [8 0] 0 0
r 1.183893757 _6_ RTR  --- 75 ack 40 [0 0 0 0] ------- [6:0 3:0 32 0] [8 0] 0 0
s 1.183893757 _6_ RTR  --- 75 ack 40 [0 0 0 0] ------- [6:0 3:0 30 3] [8 0] 0 0
r 1.185827033 _5_ RTR  --- 40 tcp 41 [13a 5 2 800] ------- [2:0 7:0 30 5] [10 0] 1 0
f 1.185827033 _5_ RTR  --- 40 tcp 41 [13a 5 2 800] ------- [2:0 7:0 29 7] [10 0] 1 0
r 1.188061294 _7_ AGT  --- 40 tcp 41 [13a 7 5 800] ------- [2:0 7:0 29 7] [10 0] 2 0
s 1.188061294 _7_ AGT  --- 76 ack 40 [0 0 0 0] ------- [7:0 2:0 32 0] [10 0] 0 0
r 1.188061294 _7_ RTR  --- 76 ack 40 [0 0 0 0] ------- [7:0 2:0 32 0] [10 0] 0 0
s 1.188061294 _7_ RTR  --- 76 ack 40 [0 0 0 0] ------- [7:0 2:0 30 5] [10 0] 0 0
r 1.191868201 _3_ AGT  --- 35 ack 40 [13a 3 6 800] ------- [6:0 3:0 30 3] [4 0] 1 0
s 1.191868201 _3_ AGT  --- 77 tcp 41 [0 0 0 0] ------- [3:0 6:0 32 0] [9 0] 0 0
r 1.191868201 _3_ RTR  --- 77 tcp 41 [0 0 0 0] ------- [3:0 6:0 32 0] [9 0] 0 0
s 1.191868201 _3_ AGT  --- 78 tcp 41 [0 0 0 0] ------- [3:0 6:0 32 0] [10 0] 0 0
r 1.191868201 _3_ RTR  --- 78 tcp 41 [0 0 0 0] ------- [3:0 6:0 32 0] [10 0] 0 0
s 1.191868201 _3_ RTR  --- 77 tcp 41 [0 0 0 0] ------- [3:0 6:0 30 6] [9 0] 0 0
s 1.191868201 _3_ RTR  --- 78 tcp 41 [0 0 0 0] ------- [3:0 6:0 30 6] [10 0] 0 0
r 1.194075165 _4_ AGT  --- 61 ack 40 [13a 4 6 800] ------- [5:0 4:0 29 4] [0 0] 2 0
s 1.194075165 _4_ AGT  --- 79 tcp 41 [0 0 0 0] ------- [4:0 5:0 32 0] [1 0] 0 0
r 1.194075165 _4_ RTR  --- 79 tcp 41 [0 0 0 0] ------- [4:0 5:0 32 0] [1 0] 0 0
s 1.194075165 _4_ AGT  --- 80 tcp 41 [0 0 0 0] ------- [4:0 5:0 32 0] [2 0] 0 0
r 1.194075165 _4_ RTR  --- 80 tcp 41 [0 0 0 0] ------- [4:0 5:0 32 0] [2 0] 0 0
s 1.194075165 _4_ RTR  --- 79 tcp 41 [0 0 0 0] ------- [4:0 5:0 30 6] [1 0] 0 0
s 1.194075165 _4_ RTR  --- 80 tcp 41 [0 0 0 0] ------- [4:0 5:0 30 6] [2 0] 0 0
r 1.196050011 _6_ AGT  --- 77 tcp 41 [13a 6 3 800] ------- [3:0 6:0 30 6] [9 0] 1 0
s 1.196050011 _6_ AGT  --- 81 ack 40 [0 0 0 0] ------- [6:0 3:0 32 0] [9 0] 0 0
r 1.196050011 _6_ RTR  --- 81 ack 40 [0 0 0 0] ------- [6:0 3:0 32 0] [9 0] 0 0
s 1.196050011 _6_ RTR  --- 81 ack 40 [0 0 0 0] ------- [6:0 3:0 30 3] [9 0] 0 0
r 1.198224974 _6_ RTR  --- 79 tcp 41 [13a 6 4 800] ------- [4:0 5:0 30 6] [1 0] 1 0
f 1.198224974 _6_ RTR  --- 79 tcp 41 [13a 6 4 800] ------- [4:0 5:0 29 5] [1 0] 1 0
r 1.198723245 _0_ AGT  --- 55 ack 40 [13a 0 9 800] ------- [9:0 0:0 30 0] [8 0] 1 0
s 1.198723245 _0_ AGT  --- 82 tcp 41 [0 0 0 0] ------- [0:0 9:0 32 0] [17 0] 0 0
r 1.198723245 _0_ RTR  --- 82 tcp 41 [0 0 0 0] ------- [0:0 9:0 32 0] [17 0] 0 0
s 1.198723245 _0_ AGT  --- 83 tcp 41 [0 0 0 0] ------- [0:0 9:0 32 0] [18 0] 0 0
r 1.198723245 _0_ RTR  --- 83 tcp 41 [0 0 0 0] ------- [0:0 9:0 32 0] [18 0] 0 0
s 1.198723245 _0_ RTR  --- 82 tcp 41 [0 0 0 0] ------- [0:0 9:0 30 9] [17 0] 0 0
s 1.198723245 _0_ RTR  --- 83 tcp 41 [0 0 0 0] ------- [0:0 9:0 30 9] [18 0] 0 0
r 1.200576066 _9_ AGT  --- 82 tcp 41 [13a 9 0 800] ------- [0:0 9:0 30 9] [17 0] 1 0
s 1.200576066 _9_ AGT  --- 84 ack 40 [0 0 0 0] ------- [9:0 0:0 32 0] [17 0] 0 0
r 1.200576066 _9_ RTR  --- 84 ack 40 [0 0 0 0] ------- [9:0 0:0 32 0] [17 0] 0 0
s 1.200576066 _9_ RTR  --- 84 ack 40 [0 0 0 0] ------- [9:0 0:0 30 0] [17 0] 0 0
r 1.202581664 _6_ AGT  --- 78 tcp 41 [13a 6 3 800] ------- [3:0 6:0 30 6] [10 0] 1 0
s 1.202581664 _6_ AGT  --- 85 ack 40 [0 0 0 0] ------- [6:0 3:0 32 0] [10 0] 0 0
r 1.202581664 _6_ RTR  --- 85 ack 40 [0 0 0 0] ------- [6:0 3:0 32 0] [10 0] 0 0
s 1.202581664 _6_ RTR  --- 85 ack 40 [0 0 0 0] ------- [6:0 3:0 30 3] [10 0] 0 0
r 1.204456627 _6_ RTR  --- 80 tcp 41 [13a 6 4 800] ------- [4:0 5:0 30 6] [2 0] 1 0
f 1.204456627 _6_ RTR  --- 80 tcp 41 [13a 6 4 800] ------- [4:0 5:0 29 5] [2 0] 1 0
r 1.204885388 _9_ AGT  --- 83 tcp 41 [13a 9 0 800] ------- [0:0 9:0 30 9] [18 0] 1 0
s 1.204885388 _9_ AGT  --- 86 ack 40 [0 0 0 0] ------- [9:0 0:0 32 0] [18 0] 0 0
r 1.204885388 _9_ RTR  --- 86 ack 40 [0 0 0 0] ------- [9:0 0:0 32 0] [18 0] 0 0
s 1.204885388 _9_ RTR  --- 86 ack 40 [0 0 0 0] ------- [9:0 0:0 30 0] [18 0] 0 0
r 1.207482854 _3_ AGT  --- 68 ack 40 [13a 3 6 800] ------- [6:0 3:0 30 3] [5 0] 1 0
s 1.207482854 _3_ AGT  --- 87 tcp 41 [0 0 0 0] ------- [3:0 6:0 32 0] [11 0] 0 0
r 1.207482854 _3_ RTR  --- 87 tcp 41 [0 0 0 0] ------- [3:0 6:0 32 0] [11 0] 0 0
s 1.207482854 _3_ AGT  --- 88 tcp 41 [0 0 0 0] ------- [3:0 6:0 32 0] [12 0] 0 0
r 1.207482854 _3_ RTR  --- 88 tcp 41 [0 0 0 0] ------- [3:0 6:0 32 0] [12 0] 0 0
s 1.207482854 _3_ RTR  --- 87 tcp 41 [0 0 0 0] ------- [3:0 6:0 30 6] [11 0] 0 0
s 1.207482854 _3_ RTR  --- 88 tcp 41 [0 0 0 0] ------- [3:0 6:0 30 6] [12 0] 0 0
r 1.209789824 _3_ AGT  --- 70 ack 40 [13a 3 6 800] ------- [6:0 3:0 30 3] [6 0] 1 0
s 1.209789824 _3_ AGT  --- 89 tcp 41 [0 0 0 0] ------- [3:0 6:0 32 0] [13 0] 0 0
r 1.209789824 _3_ RTR  --- 89 tcp 41 [0 0 0 0] ------- [3:0 6:0 32 0] [13 0] 0 0
s 1.209789824 _3_ AGT  --- 90 tcp 41 [0 0 0 0] ------- [3:0 6:0 32 0] [14 0] 0 0
r 1.209789824 _3_ RTR  --- 90 tcp 41 [0 0 0 0] ------- [3:0 6:0 32 0] [14 0] 0 0
s 1.209789824 _3_ RTR  --- 89 tcp 41 [0 0 0 0] ------- [3:0 6:0 30 6] [13 0] 0 0
s 1.209789824 _3_ RTR  --- 90 tcp 41 [0 0 0 0] ------- [3:0 6:0 30 6] [14 0] 0 0
r 1.210510209 _0_ AGT  --- 56 ack 40 [13a 0 9 800] ------- [9:0 0:0 30 0] [9 0] 1 0
s 1.210510209 _0_ AGT  --- 91 tcp 41 [0 0 0 0] ------- [0:0 9:0 32 0] [19 0] 0 0
r 1.210510209 _0_ RTR  --- 91 tcp 41 [0 0 0 0] ------- [0:0 9:0 32 0] [19 0] 0 0
s 1.210510209 _0_ AGT  --- 92 tcp 41 [0 0 0 0] ------- [0:0 9:0 32 0] [20 0] 0 0
r 1.210510209 _0_ RTR  --- 92 tcp 41 [0 0 0 0] ------- [0:0 9:0 32 0] [20 0] 0 0
s 1.210510209 _0_ RTR  --- 91 tcp 41 [0 0 0 0] ------- [0:0 9:0 30 9] [19 0] 0 0
s 1.210510209 _0_ RTR  --- 92 tcp 41 [0 0 0 0] ------- [0:0 9:0 30 9] [20 0] 0 0
r 1.212615304 _0_ AGT  --- 57 ack 40 [13a 0 9 800] ------- [9:0 0:0 30 0] [10 0] 1 0
s 1.212615304 _0_ AGT  --- 93 tcp 41 [0 0 0 0] ------- [0:0 9:0 32 0] [21 0] 0 0
r 1.212615304 _0_ RTR  --- 93 tcp 41 [0 0 0 0] ------- [0:0 9:0 32 0] [21 0] 0 0
s 1.212615304 _0_ AGT  --- 94 tcp 41 [0 0 0 0] ------- [0:0 9:0 32 0] [22 0] 0 0
r 1.212615304 _0_ RTR  --- 94 tcp 41 [0 0 0 0] ------- [0:0 9:0 32 0] [22 0] 0 0
s 1.212615304 _0_ RTR  --- 93 tcp 41 [0 0 0 0] ------- [0:0 9:0 30 9] [21 0] 0 0
s 1.212615304 _0_ RTR  --- 94 tcp 41 [0 0 0 0] ------- [0:0 9:0 30 9] [22 0] 0 0
r 1.213378793 _3_ AGT  --- 73 ack 40 [13a 3 6 800] ------- [6:0 3:0 30 3] [7 0] 1 0
s 1.213378793 _3_ AGT  --- 95 tcp 41 [0 0 0 0] ------- [3:0 6:0 32 0] [15 0] 0 0
r 1.213378793 _3_ RTR  --- 95 tcp 41 [0 0 0 0] ------- [3:0 6:0 32 0] [15 0] 0 0
s 1.213378793 _3_ AGT  --- 96 tcp 41 [0 0 0 0] ------- [3:0 6:0 32 0] [16 0] 0 0
r 1.213378793 _3_ RTR  --- 96 tcp 41 [0 0 0 0] ------- [3:0 6:0 32 0] [16 0] 0 0
s 1.213378793 _3_ RTR  --- 95 tcp 41 [0 0 0 0] ------- [3:0 6:0 30 6] [15 0] 0 0
s 1.213378793 _3_ RTR  --- 96 tcp 41 [0 0 0 0] ------- [3:0 6:0 30 6] [16 0] 0 0
r 1.216008322 _9_ AGT  --- 91 tcp 41 [13a 9 0 800] ------- [0:0 9:0 30 9] [19 0] 1 0
s 1.216008322 _9_ AGT  --- 97 ack 40 [0 0 0 0] ------- [9:0 0:0 32 0] [19 0] 0 0
r 1.216008322 _9_ RTR  --- 97 ack 40 [0 0 0 0] ------- [9:0 0:0 32 0] [19 0] 0 0
s 1.216008322 _9_ RTR  --- 97 ack 40 [0 0 0 0] ------- [9:0 0:0 30 0] [19 0] 0 0
r 1.218373920 _6_ AGT  --- 87 tcp 41 [13a 6 3 800] ------- [3:0 6:0 30 6] [11 0] 1 0
s 1.218373920 _6_ AGT  --- 98 ack 40 [0 0 0 0] ------- [6:0 3:0 32 0] [11 0] 0 0
r 1.218373920 _6_ RTR  --- 98 ack 40 [0 0 0 0] ------- [6:0 3:0 32 0] [11 0] 0 0
s 1.218373920 _6_ RTR  --- 98 ack 40 [0 0 0 0] ------- [6:0 3:0 30 3] [11 0] 0 0
r 1.220033144 _0_ AGT  --- 60 ack 40 [13a 0 9 800] ------- [9:0 0:0 30 0] [11 0] 1 0
s 1.220033144 _0_ AGT  --- 99 tcp 41 [0 0 0 0] ------- [0:0 9:0 32 0] [23 0] 0 0
r 1.220033144 _0_ RTR  --- 99 tcp 41 [0 0 0 0] ------- [0:0 9:0 32 0] [23 0] 0 0
s 1.220033144 _0_ AGT  --- 100 tcp 41 [0 0 0 0] ------- [0:0 9:0 32 0] [24 0] 0 0
r 1.220033144 _0_ RTR  --- 100 tcp 41 [0 0 0 0] ------- [0:0 9:0 32 0] [24 0] 0 0
s 1.220033144 _0_ RTR  --- 99 tcp 41 [0 0 0 0] ------- [0:0 9:0 30 9] [23 0] 0 0
s 1.220033144 _0_ RTR  --- 100 tcp 41 [0 0 0 0] ------- [0:0 9:0 30 9] [24 0] 0 0
r 1.221504468 _6_ AGT  --- 88 tcp 41 [13a 6 3 800] ------- [3:0 6:0 30 6] [12 0] 1 0
s 1.221504468 _6_ AGT  --- 101 ack 40 [0 0 0 0] ------- [6:0 3:0 32 0] [12 0] 0 0
r 1.221504468 _6_ RTR  --- 101 ack 40 [0 0 0 0] ------- [6:0 3:0 32 0] [12 0] 0 0
s 1.221504468 _6_ RTR  --- 101 ack 40 [0 0 0 0] ------- [6:0 3:0 30 3] [12 0] 0 0
r 1.223339438 _6_ AGT  --- 89 tcp 41 [13a 6 3 800] ------- [3:0 6:0 30 6] [13 0] 1 0
s 1.223339438 _6_ AGT  --- 102 ack 40 [0 0 0 0] ------- [6:0 3:0 32 0] [13 0] 0 0
r 1.223339438 _6_ RTR  --- 102 ack 40 [0 0 0 0] ------- [6:0 3:0 32 0] [13 0] 0 0
s 1.223339438 _6_ RTR  --- 102 ack 40 [0 0 0 0] ------- [6:0 3:0 30 3] [13 0] 0 0
r 1.225243162 _9_ AGT  --- 92 tcp 41 [13a 9 0 800] ------- [0:0 9:0 30 9] [20 0] 1 0
s 1.225243162 _9_ AGT  --- 103 ack 40 [0 0 0 0] ------- [9:0 0:0 32 0] [20 0] 0 0
r 1.225243162 _9_ RTR  --- 103 ack 40 [0 0 0 0] ------- [9:0 0:0 32 0] [20 0] 0 0
s 1.225243162 _9_ RTR  --- 103 ack 40 [0 0 0 0] ------- [9:0 0:0 30 0] [20 0] 0 0
r 1.227076258 _9_ AGT  --- 93 tcp 41 [13a 9 0 800] ------- [0:0 9:0 30 9] [21 0] 1 0
s 1.227076258 _9_ AGT  --- 104 ack 40 [0 0 0 0] ------- [9:0 0:0 32 0] [21 0] 0 0
r 1.227076258 _9_ RTR  --- 104 ack 40 [0 0 0 0] ------- [9:0 0:0 32 0] [21 0] 0 0
s 1.227076258 _9_ RTR  --- 104 ack 40 [0 0 0 0] ------- [9:0 0:0 30 0] [21 0] 0 0
r 1.229089355 _9_ AGT  --- 94 tcp 41 [13a 9 0 800] ------- [0:0 9:0 30 9] [22 0] 1 0
s 1.229089355 _9_ AGT  --- 105 ack 40 [0 0 0 0] ------- [9:0 0:0 32 0] [22 0] 0 0
r 1.229089355 _9_ RTR  --- 105 ack 40 [0 0 0 0] ------- [9:0 0:0 32 0] [22 0] 0 0
s 1.229089355 _9_ RTR  --- 105 ack 40 [0 0 0 0] ------- [9:0 0:0 30 0] [22 0] 0 0
r 1.230570375 _5_ RTR  --- 25 ack 40 [13a 5 7 800] ------- [7:0 2:0 30 5] [5 0] 1 0
f 1.230570375 _5_ RTR  --- 25 ack 40 [13a 5 7 800] ------- [7:0 2:0 29 2] [5 0] 1 0
r 1.232537384 _5_ RTR  --- 26 ack 40 [13a 5 7 800] ------- [7:0 2:0 30 5] [6 0] 1 0
f 1.232537384 _5_ RTR  --- 26 ack 40 [13a 5 7 800] ------- [7:0 2:0 29 2] [6 0] 1 0
r 1.234426003 _2_ AGT  --- 25 ack 40 [13a 2 5 800] ------- [7:0 2:0 29 2] [5 0] 2 0
s 1.234426003 _2_ AGT  --- 106 tcp 41 [0 0 0 0] ------- [2:0 7:0 32 0] [11 0] 0 0
r 1.234426003 _2_ RTR  --- 106 tcp 41 [0 0 0 0] ------- [2:0 7:0 32 0] [11 0] 0 0
s 1.234426003 _2_ AGT  --- 107 tcp 41 [0 0 0 0] ------- [2:0 7:0 32 0] [12 0] 0 0
r 1.234426003 _2_ RTR  --- 107 tcp 41 [0 0 0 0] ------- [2:0 7:0 32 0] [12 0] 0 0
s 1.234426003 _2_ RTR  --- 106 tcp 41 [0 0 0 0] ------- [2:0 7:0 30 5] [11 0] 0 0
s 1.234426003 _2_ RTR  --- 107 tcp 41 [0 0 0 0] ------- [2:0 7:0 30 5] [12 0] 0 0
r 1.238073586 _9_ AGT  --- 99 tcp 41 [13a 9 0 800] ------- [0:0 9:0 30 9] [23 0] 1 0
s 1.238073586 _9_ AGT  --- 108 ack 40 [0 0 0 0] ------- [9:0 0:0 32 0] [23 0] 0 0
r 1.238073586 _9_ RTR  --- 108 ack 40 [0 0 0 0] ------- [9:0 0:0 32 0] [23 0] 0 0
s 1.238073586 _9_ RTR  --- 108 ack 40 [0 0 0 0] ------- [9:0 0:0 30 0] [23 0] 0 0
r 1.240286684 _9_ AGT  --- 100 tcp 41 [13a 9 0 800] ------- [0:0 9:0 30 9] [24 0] 1 0
s 1.240286684 _9_ AGT  --- 109 ack 40 [0 0 0 0] ------- [9:0 0:0 32 0] [24 0] 0 0
r 1.240286684 _9_ RTR  --- 109 ack 40 [0 0 0 0] ------- [9:0 0:0 32 0] [24 0] 0 0
s 1.240286684 _9_ RTR  --- 109 ack 40 [0 0 0 0] ------- [9:0 0:0 30 0] [24 0] 0 0
r 1.242989678 _2_ AGT  --- 26 ack 40 [13a 2 5 800] ------- [7:0 2:0 29 2] [6 0] 2 0
s 1.242989678 _2_ AGT  --- 110 tcp 41 [0 0 0 0] ------- [2:0 7:0 32 0] [13 0] 0 0
r 1.242989678 _2_ RTR  --- 110 tcp 41 [0 0 0 0] ------- [2:0 7:0 32 0] [13 0] 0 0
s 1.242989678 _2_ AGT  --- 111 tcp 41 [0 0 0 0] ------- [2:0 7:0 32 0] [14 0] 0 0
r 1.242989678 _2_ RTR  --- 111 tcp 41 [0 0 0 0] ------- [2:0 7:0 32 0] [14 0] 0 0
s 1.242989678 _2_ RTR  --- 110 tcp 41 [0 0 0 0] ------- [2:0 7:0 30 5] [13 0] 0 0
s 1.242989678 _2_ RTR  --- 111 tcp 41 [0 0 0 0] ------- [2:0 7:0 30 5] [14 0] 0 0
r 1.245082442 _5_ RTR  --- 106 tcp 41 [13a 5 2 800] ------- [2:0 7:0 30 5] [11 0] 1 0
f 1.245082442 _5_ RTR  --- 106 tcp 41 [13a 5 2 800] ------- [2:0 7:0 29 7] [11 0] 1 0
r 1.247099449 _5_ RTR  --- 37 ack 40 [13a 5 7 800] ------- [7:0 2:0 30 5] [7 0] 1 0
f 1.247099449 _5_ RTR  --- 37 ack 40 [13a 5 7 800] ------- [7:0 2:0 29 2] [7 0] 1 0
r 1.249002467 _5_ RTR  --- 107 tcp 41 [13a 5 2 800] ------- [2:0 7:0 30 5] [12 0] 1 0
f 1.249002467 _5_ RTR  --- 107 tcp 41 [13a 5 2 800] ------- [2:0 7:0 29 7] [12 0] 1 0
r 1.250896723 _7_ AGT  --- 106 tcp 41 [13a 7 5 800] ------- [2:0 7:0 29 7] [11 0] 2 0
s 1.250896723 _7_ AGT  --- 112 ack 40 [0 0 0 0] ------- [7:0 2:0 32 0] [11 0] 0 0
r 1.250896723 _7_ RTR  --- 112 ack 40 [0 0 0 0] ------- [7:0 2:0 32 0] [11 0] 0 0
s 1.250896723 _7_ RTR  --- 112 ack 40 [0 0 0 0] ------- [7:0 2:0 30 5] [11 0] 0 0
r 1.252782238 _2_ AGT  --- 37 ack 40 [13a 2 5 800] ------- [7:0 2:0 29 2] [7 0] 2 0
s 1.252782238 _2_ AGT  --- 113 tcp 41 [0 0 0 0] ------- [2:0 7:0 32 0] [15 0] 0 0
r 1.252782238 _2_ RTR  --- 113 tcp 41 [0 0 0 0] ------- [2:0 7:0 32 0] [15 0] 0 0
s 1.252782238 _2_ AGT  --- 114 tcp 41 [0 0 0 0] ------- [2:0 7:0 32 0] [16 0] 0 0
r 1.252782238 _2_ RTR  --- 114 tcp 41 [0 0 0 0] ------- [2:0 7:0 32 0] [16 0] 0 0
s 1.252782238 _2_ RTR  --- 113 tcp 41 [0 0 0 0] ------- [2:0 7:0 30 5] [15 0] 0 0