n -t * -s 0  -x 777 -y 162 -Z 0 -z 25  -v circle -c black
n -t * -s 1  -x 425 -y 630 -Z 0 -z 25  -v circle -c black
n -t * -s 2  -x 465 -y 853 -Z 0 -z 25  -v circle -c black
n -t * -s 3  -x 565 -y 130 -Z 0 -z 25  -v circle -c black
n -t * -s 4  -x 377 -y 328 -Z 0 -z 25  -v circle -c black
n -t * -s 5  -x 682 -y 872 -Z 0 -z 25  -v circle -c black
n -t * -s 6  -x 370 -y 527 -Z 0 -z 25  -v circle -c black
n -t * -s 7  -x 419 -y 180 -Z 0 -z 25  -v circle -c black
n -t * -s 8  -x 677 -y 276 -Z 0 -z 25  -v circle -c black
n -t * -s 9  -x 853 -y 560 -Z 0 -z 25  -v circle -c black
n -t * -s 10  -x 580 -y 884 -Z 0 -z 25  -v circle -c black
n -t * -s 11  -x 807 -y 82 -Z 0 -z 25  -v circle -c black
n -t * -s 12  -x 814 -y 728 -Z 0 -z 25  -v circle -c black
n -t * -s 13  -x 296 -y 21 -Z 0 -z 25  -v circle -c black
n -t * -s 14  -x 617 -y 607 -Z 0 -z 25  -v circle -c black
n -t * -s 15  -x 542 -y 770 -Z 0 -z 25  -v circle -c black
n -t * -s 16  -x 469 -y 884 -Z 0 -z 25  -v circle -c black
n -t * -s 17  -x 817 -y 110 -Z 0 -z 25  -v circle -c black
n -t * -s 18  -x 850 -y 314 -Z 0 -z 25  -v circle -c black
n -t * -s 19  -x 553 -y 394 -Z 0 -z 25  -v circle -c black
n -t * -s 20  -x 731 -y 522 -Z 0 -z 25  -v circle -c black
n -t * -s 21  -x 929 -y 841 -Z 0 -z 25  -v circle -c black
n -t * -s 22  -x 772 -y 707 -Z 0 -z 25  -v circle -c black
n -t * -s 23  -x 896 -y 235 -Z 0 -z 25  -v circle -c black
n -t * -s 24  -x 259 -y 548 -Z 0 -z 25  -v circle -c black
V -t * -v 1.0a5 -a 0
W -t * -x 1000 -y 1000
A -t * -n 1 -p 0 -o 0x7fffffff -c 30 -a 1
A -t * -h 1 -m 1073741823 -s 0
+ -t 0.010000000 -s 0 -d -1 -p tcp -e 40 -c 2 -a 0 -i 0 -k AGT 
- -t 0.010000000 -s 0 -d -1 -p tcp -e 40 -c 2 -a 0 -i 0 -k AGT
h -t 0.010000000 -s 0 -d -1 -p tcp -e 40 -c 2 -a 0 -i 0 -k AGT
+ -t 0.010000000 -s 0 -d -1 -p AODV -e 48 -c 2 -a 0 -i 0 -k RTR 
- -t 0.010000000 -s 0 -d -1 -p AODV -e 48 -c 2 -a 0 -i 0 -k RTR
h -t 0.010000000 -s 0 -d -1 -p AODV -e 48 -c 2 -a 0 -i 0 -k RTR
r -t 0.010988219 -s 17 -d -1 -p AODV -e 48 -c 2 -a 0 -i 0 -k RTR
r -t 0.010988285 -s 11 -d -1 -p AODV -e 48 -c 2 -a 0 -i 0 -k RTR
r -t 0.010988465 -s 23 -d -1 -p AODV -e 48 -c 2 -a 0 -i 0 -k RTR
r -t 0.010988505 -s 8 -d -1 -p AODV -e 48 -c 2 -a 0 -i 0 -k RTR
r -t 0.010988562 -s 18 -d -1 -p AODV -e 48 -c 2 -a 0 -i 0 -k RTR
r -t 0.010988715 -s 3 -d -1 -p AODV -e 48 -c 2 -a 0 -i 0 -k RTR
+ -t 0.011869445 -s 17 -d -1 -p AODV -e 48 -c 2 -a 0 -i 0 -k RTR 
- -t 0.011869445 -s 17 -d -1 -p AODV -e 48 -c 2 -a 0 -i 0 -k RTR
h -t 0.011869445 -s 17 -d -1 -p AODV -e 48 -c 2 -a 0 -i 0 -k RTR
r -t 0.013177545 -s 11 -d -1 -p AODV -e 48 -c 2 -a 0 -i 0 -k RTR
r -t 0.013177664 -s 0 -d -1 -p AODV -e 48 -c 2 -a 0 -i 0 -k RTR
r -t 0.013177938 -s 23 -d -1 -p AODV -e 48 -c 2 -a 0 -i 0 -k RTR
r -t 0.013178134 -s 18 -d -1 -p AODV -e 48 -c 2 -a 0 -i 0 -k RTR
r -t 0.013178169 -s 8 -d -1 -p AODV -e 48 -c 2 -a 0 -i 0 -k RTR
+ -t 0.013334732 -s 3 -d -1 -p AODV -e 48 -c 2 -a 0 -i 0 -k RTR 
- -t 0.013334732 -s 3 -d -1 -p AODV -e 48 -c 2 -a 0 -i 0 -k RTR
h -t 0.013334732 -s 3 -d -1 -p AODV -e 48 -c 2 -a 0 -i 0 -k RTR
+ -t 0.014118123 -s 8 -d -1 -p AODV -e 48 -c 2 -a 0 -i 0 -k RTR 
- -t 0.014118123 -s 8 -d -1 -p AODV -e 48 -c 2 -a 0 -i 0 -k RTR
h -t 0.014118123 -s 8 -d -1 -p AODV -e 48 -c 2 -a 0 -i 0 -k RTR
r -t 0.014680802 -s 7 -d -1 -p AODV -e 48 -c 2 -a 0 -i 0 -k RTR
r -t 0.014680901 -s 8 -d -1 -p AODV -e 48 -c 2 -a 0 -i 0 -k RTR
r -t 0.014681003 -s 0 -d -1 -p AODV -e 48 -c 2 -a 0 -i 0 -k RTR
r -t 0.014681110 -s 11 -d -1 -p AODV -e 48 -c 2 -a 0 -i 0 -k RTR
+ -t 0.015400019 -s 11 -d -1 -p AODV -e 48 -c 2 -a 0 -i 0 -k RTR 
- -t 0.015400019 -s 11 -d -1 -p AODV -e 48 -c 2 -a 0 -i 0 -k RTR
h -t 0.015400019 -s 11 -d -1 -p AODV -e 48 -c 2 -a 0 -i 0 -k RTR
r -t 0.015619407 -s 0 -d -1 -p AODV -e 48 -c 2 -a 0 -i 0 -k RTR
r -t 0.015619472 -s 19 -d -1 -p AODV -e 48 -c 2 -a 0 -i 0 -k RTR
r -t 0.015619492 -s 18 -d -1 -p AODV -e 48 -c 2 -a 0 -i 0 -k RTR
r -t 0.015619515 -s 3 -d -1 -p AODV -e 48 -c 2 -a 0 -i 0 -k RTR
r -t 0.015619625 -s 17 -d -1 -p AODV -e 48 -c 2 -a 0 -i 0 -k RTR
r -t 0.015619644 -s 23 -d -1 -p AODV -e 48 -c 2 -a 0 -i 0 -k RTR
r -t 0.015619680 -s 11 -d -1 -p AODV -e 48 -c 2 -a 0 -i 0 -k RTR
r -t 0.016877779 -s 17 -d -1 -p AODV -e 48 -c 2 -a 0 -i 0 -k RTR
r -t 0.016877965 -s 0 -d -1 -p AODV -e 48 -c 2 -a 0 -i 0 -k RTR
r -t 0.016878270 -s 23 -d -1 -p AODV -e 48 -c 2 -a 0 -i 0 -k RTR
r -t 0.016878458 -s 8 -d -1 -p AODV -e 48 -c 2 -a 0 -i 0 -k RTR
r -t 0.016878466 -s 18 -d -1 -p AODV -e 48 -c 2 -a 0 -i 0 -k RTR
r -t 0.016878502 -s 3 -d -1 -p AODV -e 48 -c 2 -a 0 -i 0 -k RTR
+ -t 0.018980020 -s 23 -d -1 -p AODV -e 48 -c 2 -a 0 -i 0 -k RTR 
- -t 0.018980020 -s 23 -d -1 -p AODV -e 48 -c 2 -a 0 -i 0 -k RTR
h -t 0.018980020 -s 23 -d -1 -p AODV -e 48 -c 2 -a 0 -i 0 -k RTR
+ -t 0.019153323 -s 18 -d -1 -p AODV -e 48 -c 2 -a 0 -i 0 -k RTR 
- -t 0.019153323 -s 18 -d -1 -p AODV -e 48 -c 2 -a 0 -i 0 -k RTR
h -t 0.019153323 -s 18 -d -1 -p AODV -e 48 -c 2 -a 0 -i 0 -k RTR
+ -t 0.019856039 -s 19 -d -1 -p AODV -e 48 -c 2 -a 0 -i 0 -k RTR 
- -t 0.019856039 -s 19 -d -1 -p AODV -e 48 -c 2 -a 0 -i 0 -k RTR
h -t 0.019856039 -s 19 -d -1 -p AODV -e 48 -c 2 -a 0 -i 0 -k RTR
r -t 0.020268325 -s 18 -d -1 -p AODV -e 48 -c 2 -a 0 -i 0 -k RTR
r -t 0.020268485 -s 0 -d -1 -p AODV -e 48 -c 2 -a 0 -i 0 -k RTR
r -t 0.020268513 -s 17 -d -1 -p AODV -e 48 -c 2 -a 0 -i 0 -k RTR
r -t 0.020268610 -s 11 -d -1 -p AODV -e 48 -c 2 -a 0 -i 0 -k RTR
r -t 0.020268763 -s 8 -d -1 -p AODV -e 48 -c 2 -a 0 -i 0 -k RTR
+ -t 0.021081479 -s 7 -d -1 -p AODV -e 48 -c 2 -a 0 -i 0 -k RTR 
- -t 0.021081479 -s 7 -d -1 -p AODV -e 48 -c 2 -a 0 -i 0 -k RTR
h -t 0.021081479 -s 7 -d -1 -p AODV -e 48 -c 2 -a 0 -i 0 -k RTR
r -t 0.021326629 -s 23 -d -1 -p AODV -e 48 -c 2 -a 0 -i 0 -k RTR
r -t 0.021326887 -s 0 -d -1 -p AODV -e 48 -c 2 -a 0 -i 0 -k RTR
r -t 0.021326915 -s 8 -d -1 -p AODV -e 48 -c 2 -a 0 -i 0 -k RTR
r -t 0.021327013 -s 17 -d -1 -p AODV -e 48 -c 2 -a 0 -i 0 -k RTR
r -t 0.021327111 -s 11 -d -1 -p AODV -e 48 -c 2 -a 0 -i 0 -k RTR
r -t 0.021327123 -s 20 -d -1 -p AODV -e 48 -c 2 -a 0 -i 0 -k RTR
r -t 0.021327145 -s 9 -d -1 -p AODV -e 48 -c 2 -a 0 -i 0 -k RTR
r -t 0.022610342 -s 4 -d -1 -p AODV -e 48 -c 2 -a 0 -i 0 -k RTR
r -t 0.022610344 -s 3 -d -1 -p AODV -e 48 -c 2 -a 0 -i 0 -k RTR
r -t 0.022610499 -s 13 -d -1 -p AODV -e 48 -c 2 -a 0 -i 0 -k RTR
r -t 0.024053241 -s 8 -d -1 -p AODV -e 48 -c 2 -a 0 -i 0 -k RTR
r -t 0.024053297 -s 4 -d -1 -p AODV -e 48 -c 2 -a 0 -i 0 -k RTR
r -t 0.024053402 -s 20 -d -1 -p AODV -e 48 -c 2 -a 0 -i 0 -k RTR
r -t 0.024053412 -s 14 -d -1 -p AODV -e 48 -c 2 -a 0 -i 0 -k RTR
r -t 0.024053425 -s 6 -d -1 -p AODV -e 48 -c 2 -a 0 -i 0 -k RTR
+ -t 0.024782094 -s 13 -d -1 -p AODV -e 48 -c 2 -a 0 -i 0 -k RTR 
- -t 0.024782094 -s 13 -d -1 -p AODV -e 48 -c 2 -a 0 -i 0 -k RTR
h -t 0.024782094 -s 13 -d -1 -p AODV -e 48 -c 2 -a 0 -i 0 -k RTR
+ -t 0.025988283 -s 20 -d -1 -p AODV -e 48 -c 2 -a 0 -i 0 -k RTR 
- -t 0.025988283 -s 20 -d -1 -p AODV -e 48 -c 2 -a 0 -i 0 -k RTR
h -t 0.025988283 -s 20 -d -1 -p AODV -e 48 -c 2 -a 0 -i 0 -k RTR
r -t 0.026090764 -s 7 -d -1 -p AODV -e 48 -c 2 -a 0 -i 0 -k RTR
r -t 0.027076709 -s 9 -d -1 -p AODV -e 48 -c 2 -a 0 -i 0 -k RTR
r -t 0.027076757 -s 14 -d -1 -p AODV -e 48 -c 2 -a 0 -i 0 -k RTR
r -t 0.027076914 -s 22 -d -1 -p AODV -e 48 -c 2 -a 0 -i 0 -k RTR
r -t 0.027077014 -s 19 -d -1 -p AODV -e 48 -c 2 -a 0 -i 0 -k RTR
r -t 0.027077023 -s 12 -d -1 -p AODV -e 48 -c 2 -a 0 -i 0 -k RTR
r -t 0.027077082 -s 18 -d -1 -p AODV -e 48 -c 2 -a 0 -i 0 -k RTR
+ -t 0.028250213 -s 9 -d -1 -p AODV -e 48 -c 2 -a 0 -i 0 -k RTR 
- -t 0.028250213 -s 9 -d -1 -p AODV -e 48 -c 2 -a 0 -i 0 -k RTR
h -t 0.028250213 -s 9 -d -1 -p AODV -e 48 -c 2 -a 0 -i 0 -k RTR
+ -t 0.028950675 -s 12 -d -1 -p AODV -e 48 -c 2 -a 0 -i 0 -k RTR 
- -t 0.028950675 -s 12 -d -1 -p AODV -e 48 -c 2 -a 0 -i 0 -k RTR
h -t 0.028950675 -s 12 -d -1 -p AODV -e 48 -c 2 -a 0 -i 0 -k RTR
r -t 0.029718639 -s 20 -d -1 -p AODV -e 48 -c 2 -a 0 -i 0 -k RTR
r -t 0.029718772 -s 22 -d -1 -p AODV -e 48 -c 2 -a 0 -i 0 -k RTR
r -t 0.029718788 -s 12 -d -1 -p AODV -e 48 -c 2 -a 0 -i 0 -k RTR
r -t 0.029719015 -s 14 -d -1 -p AODV -e 48 -c 2 -a 0 -i 0 -k RTR
r -t 0.029719033 -s 18 -d -1 -p AODV -e 48 -c 2 -a 0 -i 0 -k RTR
+ -t 0.030826914 -s 6 -d -1 -p AODV -e 48 -c 2 -a 0 -i 0 -k RTR 
- -t 0.030826914 -s 6 -d -1 -p AODV -e 48 -c 2 -a 0 -i 0 -k RTR
h -t 0.030826914 -s 6 -d -1 -p AODV -e 48 -c 2 -a 0 -i 0 -k RTR
r -t 0.030836944 -s 22 -d -1 -p AODV -e 48 -c 2 -a 0 -i 0 -k RTR
r -t 0.030837325 -s 21 -d -1 -p AODV -e 48 -c 2 -a 0 -i 0 -k RTR
r -t 0.030837363 -s 9 -d -1 -p AODV -e 48 -c 2 -a 0 -i 0 -k RTR
r -t 0.030837439 -s 5 -d -1 -p AODV -e 48 -c 2 -a 0 -i 0 -k RTR
r -t 0.030837528 -s 20 -d -1 -p AODV -e 48 -c 2 -a 0 -i 0 -k RTR
r -t 0.030837559 -s 14 -d -1 -p AODV -e 48 -c 2 -a 0 -i 0 -k RTR
+ -t 0.030945522 -s 5 -d -1 -p AODV -e 48 -c 2 -a 0 -i 0 -k RTR 
- -t 0.030945522 -s 5 -d -1 -p AODV -e 48 -c 2 -a 0 -i 0 -k RTR
h -t 0.030945522 -s 5 -d -1 -p AODV -e 48 -c 2 -a 0 -i 0 -k RTR
+ -t 0.031008594 -s 4 -d -1 -p AODV -e 48 -c 2 -a 0 -i 0 -k RTR 
- -t 0.031008594 -s 4 -d -1 -p AODV -e 48 -c 2 -a 0 -i 0 -k RTR
h -t 0.031008594 -s 4 -d -1 -p AODV -e 48 -c 2 -a 0 -i 0 -k RTR
+ -t 0.031118990 -s 22 -d -1 -p AODV -e 48 -c 2 -a 0 -i 0 -k RTR 
- -t 0.031118990 -s 22 -d -1 -p AODV -e 48 -c 2 -a 0 -i 0 -k RTR
h -t 0.031118990 -s 22 -d -1 -p AODV -e 48 -c 2 -a 0 -i 0 -k RTR
+ -t 0.031421352 -s 21 -d -1 -p AODV -e 48 -c 2 -a 0 -i 0 -k RTR 
- -t 0.031421352 -s 21 -d -1 -p AODV -e 48 -c 2 -a 0 -i 0 -k RTR
h -t 0.031421352 -s 21 -d -1 -p AODV -e 48 -c 2 -a 0 -i 0 -k RTR
r -t 0.032237107 -s 7 -d -1 -p AODV -e 48 -c 2 -a 0 -i 0 -k RTR
r -t 0.032237221 -s 19 -d -1 -p AODV -e 48 -c 2 -a 0 -i 0 -k RTR
r -t 0.032237258 -s 6 -d -1 -p AODV -e 48 -c 2 -a 0 -i 0 -k RTR
r -t 0.032237426 -s 24 -d -1 -p AODV -e 48 -c 2 -a 0 -i 0 -k RTR
+ -t 0.032237426 -s 24 -d 4 -p AODV -e 44 -c 2 -a 0 -i 0 -k RTR 
- -t 0.032237426 -s 24 -d 4 -p AODV -e 44 -c 2 -a 0 -i 0 -k RTR
h -t 0.032237426 -s 24 -d 4 -p AODV -e 44 -c 2 -a 0 -i 0 -k RTR
r -t 0.032393865 -s 10 -d -1 -p AODV -e 48 -c 2 -a 0 -i 0 -k RTR
r -t 0.032394174 -s 12 -d -1 -p AODV -e 48 -c 2 -a 0 -i 0 -k RTR
r -t 0.032394234 -s 16 -d -1 -p AODV -e 48 -c 2 -a 0 -i 0 -k RTR
r -t 0.032394352 -s 21 -d -1 -p AODV -e 48 -c 2 -a 0 -i 0 -k RTR
+ -t 0.032564478 -s 14 -d -1 -p AODV -e 48 -c 2 -a 0 -i 0 -k RTR 
- -t 0.032564478 -s 14 -d -1 -p AODV -e 48 -c 2 -a 0 -i 0 -k RTR
h -t 0.032564478 -s 14 -d -1 -p AODV -e 48 -c 2 -a 0 -i 0 -k RTR
r -t 0.033552890 -s 12 -d -1 -p AODV -e 48 -c 2 -a 0 -i 0 -k RTR
r -t 0.033553040 -s 22 -d -1 -p AODV -e 48 -c 2 -a 0 -i 0 -k RTR
r -t 0.033553182 -s 5 -d -1 -p AODV -e 48 -c 2 -a 0 -i 0 -k RTR
r -t 0.034616052 -s 24 -d -1 -p AODV -e 48 -c 2 -a 0 -i 0 -k RTR
r -t 0.034616064 -s 1 -d -1 -p AODV -e 48 -c 2 -a 0 -i 0 -k RTR
r -t 0.034616339 -s 4 -d -1 -p AODV -e 48 -c 2 -a 0 -i 0 -k RTR
r -t 0.034616429 -s 19 -d -1 -p AODV -e 48 -c 2 -a 0 -i 0 -k RTR
+ -t 0.035012106 -s 10 -d -1 -p AODV -e 48 -c 2 -a 0 -i 0 -k RTR 
- -t 0.035012106 -s 10 -d -1 -p AODV -e 48 -c 2 -a 0 -i 0 -k RTR
h -t 0.035012106 -s 10 -d -1 -p AODV -e 48 -c 2 -a 0 -i 0 -k RTR
r -t 0.036977062 -s 5 -d -1 -p AODV -e 48 -c 2 -a 0 -i 0 -k RTR
r -t 0.036977090 -s 16 -d -1 -p AODV -e 48 -c 2 -a 0 -i 0 -k RTR
+ -t 0.037942630 -s 16 -d -1 -p AODV -e 48 -c 2 -a 0 -i 0 -k RTR 
- -t 0.037942630 -s 16 -d -1 -p AODV -e 48 -c 2 -a 0 -i 0 -k RTR
h -t 0.037942630 -s 16 -d -1 -p AODV -e 48 -c 2 -a 0 -i 0 -k RTR
r -t 0.038259747 -s 12 -d -1 -p AODV -e 48 -c 2 -a 0 -i 0 -k RTR
r -t 0.038260150 -s 9 -d -1 -p AODV -e 48 -c 2 -a 0 -i 0 -k RTR
r -t 0.038260205 -s 14 -d -1 -p AODV -e 48 -c 2 -a 0 -i 0 -k RTR
r -t 0.038260217 -s 5 -d -1 -p AODV -e 48 -c 2 -a 0 -i 0 -k RTR
r -t 0.038260222 -s 20 -d -1 -p AODV -e 48 -c 2 -a 0 -i 0 -k RTR
r -t 0.038260278 -s 21 -d -1 -p AODV -e 48 -c 2 -a 0 -i 0 -k RTR
r -t 0.039358679 -s 20 -d -1 -p AODV -e 48 -c 2 -a 0 -i 0 -k RTR
r -t 0.039358803 -s 15 -d -1 -p AODV -e 48 -c 2 -a 0 -i 0 -k RTR
r -t 0.039358820 -s 22 -d -1 -p AODV -e 48 -c 2 -a 0 -i 0 -k RTR
r -t 0.039358850 -s 1 -d -1 -p AODV -e 48 -c 2 -a 0 -i 0 -k RTR
r -t 0.039358947 -s 19 -d -1 -p AODV -e 48 -c 2 -a 0 -i 0 -k RTR
r -t 0.039358976 -s 12 -d -1 -p AODV -e 48 -c 2 -a 0 -i 0 -k RTR
r -t 0.039359007 -s 9 -d -1 -p AODV -e 48 -c 2 -a 0 -i 0 -k RTR
+ -t 0.041307911 -s 4 -d 7 -p AODV -e 44 -c 2 -a 0 -i 0 -k RTR 
- -t 0.041307911 -s 4 -d 7 -p AODV -e 44 -c 2 -a 0 -i 0 -k RTR
h -t 0.041307911 -s 4 -d 7 -p AODV -e 44 -c 2 -a 0 -i 0 -k RTR
r -t 0.042650504 -s 2 -d -1 -p AODV -e 48 -c 2 -a 0 -i 0 -k RTR
r -t 0.042650770 -s 10 -d -1 -p AODV -e 48 -c 2 -a 0 -i 0 -k RTR
r -t 0.042650851 -s 15 -d -1 -p AODV -e 48 -c 2 -a 0 -i 0 -k RTR
r -t 0.042651111 -s 5 -d -1 -p AODV -e 48 -c 2 -a 0 -i 0 -k RTR
+ -t 0.044084226 -s 1 -d -1 -p AODV -e 48 -c 2 -a 0 -i 0 -k RTR 
- -t 0.044084226 -s 1 -d -1 -p AODV -e 48 -c 2 -a 0 -i 0 -k RTR
h -t 0.044084226 -s 1 -d -1 -p AODV -e 48 -c 2 -a 0 -i 0 -k RTR
+ -t 0.046698501 -s 7 -d 3 -p AODV -e 44 -c 2 -a 0 -i 0 -k RTR 
- -t 0.046698501 -s 7 -d 3 -p AODV -e 44 -c 2 -a 0 -i 0 -k RTR
h -t 0.046698501 -s 7 -d 3 -p AODV -e 44 -c 2 -a 0 -i 0 -k RTR
+ -t 0.048009858 -s 15 -d -1 -p AODV -e 48 -c 2 -a 0 -i 0 -k RTR 
- -t 0.048009858 -s 15 -d -1 -p AODV -e 48 -c 2 -a 0 -i 0 -k RTR
h -t 0.048009858 -s 15 -d -1 -p AODV -e 48 -c 2 -a 0 -i 0 -k RTR
r -t 0.049194390 -s 6 -d -1 -p AODV -e 48 -c 2 -a 0 -i 0 -k RTR
r -t 0.049194609 -s 15 -d -1 -p AODV -e 48 -c 2 -a 0 -i 0 -k RTR
r -t 0.049194618 -s 24 -d -1 -p AODV -e 48 -c 2 -a 0 -i 0 -k RTR
r -t 0.049194646 -s 14 -d -1 -p AODV -e 48 -c 2 -a 0 -i 0 -k RTR
r -t 0.049194756 -s 2 -d -1 -p AODV -e 48 -c 2 -a 0 -i 0 -k RTR
r -t 0.050312987 -s 2 -d -1 -p AODV -e 48 -c 2 -a 0 -i 0 -k RTR
r -t 0.050313010 -s 10 -d -1 -p AODV -e 48 -c 2 -a 0 -i 0 -k RTR
r -t 0.050313060 -s 16 -d -1 -p AODV -e 48 -c 2 -a 0 -i 0 -k RTR
r -t 0.050313187 -s 5 -d -1 -p AODV -e 48 -c 2 -a 0 -i 0 -k RTR
r -t 0.050313207 -s 14 -d -1 -p AODV -e 48 -c 2 -a 0 -i 0 -k RTR
r -t 0.050313217 -s 1 -d -1 -p AODV -e 48 -c 2 -a 0 -i 0 -k RTR
r -t 0.050313404 -s 22 -d -1 -p AODV -e 48 -c 2 -a 0 -i 0 -k RTR
+ -t 0.051678980 -s 2 -d -1 -p AODV -e 48 -c 2 -a 0 -i 0 -k RTR 
- -t 0.051678980 -s 2 -d -1 -p AODV -e 48 -c 2 -a 0 -i 0 -k RTR
h -t 0.051678980 -s 2 -d -1 -p AODV -e 48 -c 2 -a 0 -i 0 -k RTR
r -t 0.052967085 -s 16 -d -1 -p AODV -e 48 -c 2 -a 0 -i 0 -k RTR
r -t 0.052967358 -s 15 -d -1 -p AODV -e 48 -c 2 -a 0 -i 0 -k RTR
r -t 0.052967377 -s 10 -d -1 -p AODV -e 48 -c 2 -a 0 -i 0 -k RTR
r -t 0.052967706 -s 5 -d -1 -p AODV -e 48 -c 2 -a 0 -i 0 -k RTR
r -t 0.052967736 -s 1 -d -1 -p AODV -e 48 -c 2 -a 0 -i 0 -k RTR
+ -t 0.053252818 -s 3 -d 0 -p AODV -e 44 -c 2 -a 0 -i 0 -k RTR 
- -t 0.053252818 -s 3 -d 0 -p AODV -e 44 -c 2 -a 0 -i 0 -k RTR
h -t 0.053252818 -s 3 -d 0 -p AODV -e 44 -c 2 -a 0 -i 0 -k RTR
+ -t 0.058344821 -s 0 -d 3 -p tcp -e 40 -c 2 -a 0 -i 0 -k RTR 
- -t 0.058344821 -s 0 -d 3 -p tcp -e 40 -c 2 -a 0 -i 0 -k RTR
h -t 0.058344821 -s 0 -d 3 -p tcp -e 40 -c 2 -a 0 -i 0 -k RTR
+ -t 0.060610965 -s 3 -d 7 -p tcp -e 40 -c 2 -a 0 -i 0 -k RTR 
- -t 0.060610965 -s 3 -d 7 -p tcp -e 40 -c 2 -a 0 -i 0 -k RTR
h -t 0.060610965 -s 3 -d 7 -p tcp -e 40 -c 2 -a 0 -i 0 -k RTR
+ -t 0.062556508 -s 7 -d 4 -p tcp -e 40 -c 2 -a 0 -i 0 -k RTR 
- -t 0.062556508 -s 7 -d 4 -p tcp -e 40 -c 2 -a 0 -i 0 -k RTR
h -t 0.062556508 -s 7 -d 4 -p tcp -e 40 -c 2 -a 0 -i 0 -k RTR
+ -t 0.064602047 -s 4 -d 24 -p tcp -e 40 -c 2 -a 0 -i 0 -k RTR 
- -t 0.064602047 -s 4 -d 24 -p tcp -e 40 -c 2 -a 0 -i 0 -k RTR
h -t 0.064602047 -s 4 -d 24 -p tcp -e 40 -c 2 -a 0 -i 0 -k RTR
r -t 0.066568543 -s 24 -d 24 -p tcp -e 40 -c 2 -a 0 -i 0 -k AGT
+ -t 0.066568543 -s 24 -d -1 -p ack -e 40 -c 2 -a 0 -i 1 -k AGT 
- -t 0.066568543 -s 24 -d -1 -p ack -e 40 -c 2 -a 0 -i 1 -k AGT
h -t 0.066568543 -s 24 -d -1 -p ack -e 40 -c 2 -a 0 -i 1 -k AGT
+ -t 0.066568543 -s 24 -d 4 -p ack -e 40 -c 2 -a 0 -i 1 -k RTR 
- -t 0.066568543 -s 24 -d 4 -p ack -e 40 -c 2 -a 0 -i 1 -k RTR
h -t 0.066568543 -s 24 -d 4 -p ack -e 40 -c 2 -a 0 -i 1 -k RTR
+ -t 0.068715040 -s 4 -d 7 -p ack -e 40 -c 2 -a 0 -i 1 -k RTR 
- -t 0.068715040 -s 4 -d 7 -p ack -e 40 -c 2 -a 0 -i 1 -k RTR
h -t 0.068715040 -s 4 -d 7 -p ack -e 40 -c 2 -a 0 -i 1 -k RTR
+ -t 0.070640578 -s 7 -d 3 -p ack -e 40 -c 2 -a 0 -i 1 -k RTR 
- -t 0.070640578 -s 7 -d 3 -p ack -e 40 -c 2 -a 0 -i 1 -k RTR
h -t 0.070640578 -s 7 -d 3 -p ack -e 40 -c 2 -a 0 -i 1 -k RTR
+ -t 0.072646121 -s 3 -d 0 -p ack -e 40 -c 2 -a 0 -i 1 -k RTR 
- -t 0.072646121 -s 3 -d 0 -p ack -e 40 -c 2 -a 0 -i 1 -k RTR
h -t 0.072646121 -s 3 -d 0 -p ack -e 40 -c 2 -a 0 -i 1 -k RTR
r -t 0.074632265 -s 0 -d 0 -p ack -e 40 -c 2 -a 0 -i 1 -k AGT
+ -t 0.074632265 -s 0 -d -1 -p tcp -e 1540 -c 2 -a 0 -i 2 -k AGT 
- -t 0.074632265 -s 0 -d -1 -p tcp -e 1540 -c 2 -a 0 -i 2 -k AGT
h -t 0.074632265 -s 0 -d -1 -p tcp -e 1540 -c 2 -a 0 -i 2 -k AGT
+ -t 0.074632265 -s 0 -d -1 -p tcp -e 1540 -c 2 -a 0 -i 3 -k AGT 
- -t 0.074632265 -s 0 -d -1 -p tcp -e 1540 -c 2 -a 0 -i 3 -k AGT
h -t 0.074632265 -s 0 -d -1 -p tcp -e 1540 -c 2 -a 0 -i 3 -k AGT
+ -t 0.074632265 -s 0 -d 3 -p tcp -e 1540 -c 2 -a 0 -i 2 -k RTR 
- -t 0.074632265 -s 0 -d 3 -p tcp -e 1540 -c 2 -a 0 -i 2 -k RTR
h -t 0.074632265 -s 0 -d 3 -p tcp -e 1540 -c 2 -a 0 -i 2 -k RTR
+ -t 0.074632265 -s 0 -d 3 -p tcp -e 1540 -c 2 -a 0 -i 3 -k RTR 
- -t 0.074632265 -s 0 -d 3 -p tcp -e 1540 -c 2 -a 0 -i 3 -k RTR
h -t 0.074632265 -s 0 -d 3 -p tcp -e 1540 -c 2 -a 0 -i 3 -k RTR
+ -t 0.088718409 -s 3 -d 7 -p tcp -e 1540 -c 2 -a 0 -i 2 -k RTR 
- -t 0.088718409 -s 3 -d 7 -p tcp -e 1540 -c 2 -a 0 -i 2 -k RTR
h -t 0.088718409 -s 3 -d 7 -p tcp -e 1540 -c 2 -a 0 -i 2 -k RTR
+ -t 0.102543953 -s 7 -d 4 -p tcp -e 1540 -c 2 -a 0 -i 2 -k RTR 
- -t 0.102543953 -s 7 -d 4 -p tcp -e 1540 -c 2 -a 0 -i 2 -k RTR
h -t 0.102543953 -s 7 -d 4 -p tcp -e 1540 -c 2 -a 0 -i 2 -k RTR
+ -t 0.116795291 -s 3 -d 7 -p tcp -e 1540 -c 2 -a 0 -i 3 -k RTR 
- -t 0.116795291 -s 3 -d 7 -p tcp -e 1540 -c 2 -a 0 -i 3 -k RTR
h -t 0.116795291 -s 3 -d 7 -p tcp -e 1540 -c 2 -a 0 -i 3 -k RTR
+ -t 0.130771310 -s 4 -d 24 -p tcp -e 1540 -c 2 -a 0 -i 2 -k RTR 
- -t 0.130771310 -s 4 -d 24 -p tcp -e 1540 -c 2 -a 0 -i 2 -k RTR
h -t 0.130771310 -s 4 -d 24 -p tcp -e 1540 -c 2 -a 0 -i 2 -k RTR
r -t 0.144617807 -s 24 -d 24 -p tcp -e 1540 -c 2 -a 0 -i 2 -k AGT
+ -t 0.144617807 -s 24 -d -1 -p ack -e 40 -c 2 -a 0 -i 4 -k AGT 
- -t 0.144617807 -s 24 -d -1 -p ack -e 40 -c 2 -a 0 -i 4 -k AGT
h -t 0.144617807 -s 24 -d -1 -p ack -e 40 -c 2 -a 0 -i 4 -k AGT
+ -t 0.144617807 -s 24 -d 4 -p ack -e 40 -c 2 -a 0 -i 4 -k RTR 
- -t 0.144617807 -s 24 -d 4 -p ack -e 40 -c 2 -a 0 -i 4 -k RTR
h -t 0.144617807 -s 24 -d 4 -p ack -e 40 -c 2 -a 0 -i 4 -k RTR
+ -t 0.146504303 -s 4 -d 7 -p ack -e 40 -c 2 -a 0 -i 4 -k RTR 
- -t 0.146504303 -s 4 -d 7 -p ack -e 40 -c 2 -a 0 -i 4 -k RTR
h -t 0.146504303 -s 4 -d 7 -p ack -e 40 -c 2 -a 0 -i 4 -k RTR
+ -t 0.148529841 -s 7 -d 3 -p ack -e 40 -c 2 -a 0 -i 4 -k RTR 
- -t 0.148529841 -s 7 -d 3 -p ack -e 40 -c 2 -a 0 -i 4 -k RTR
h -t 0.148529841 -s 7 -d 3 -p ack -e 40 -c 2 -a 0 -i 4 -k RTR
+ -t 0.150375385 -s 3 -d 0 -p ack -e 40 -c 2 -a 0 -i 4 -k RTR 
- -t 0.150375385 -s 3 -d 0 -p ack -e 40 -c 2 -a 0 -i 4 -k RTR
h -t 0.150375385 -s 3 -d 0 -p ack -e 40 -c 2 -a 0 -i 4 -k RTR
+ -t 0.164240928 -s 7 -d 4 -p tcp -e 1540 -c 2 -a 0 -i 3 -k RTR 
- -t 0.164240928 -s 7 -d 4 -p tcp -e 1540 -c 2 -a 0 -i 3 -k RTR
h -t 0.164240928 -s 7 -d 4 -p tcp -e 1540 -c 2 -a 0 -i 3 -k RTR
r -t 0.166447586 -s 0 -d 0 -p ack -e 40 -c 2 -a 0 -i 4 -k AGT
+ -t 0.166447586 -s 0 -d -1 -p tcp -e 1540 -c 2 -a 0 -i 5 -k AGT 
- -t 0.166447586 -s 0 -d -1 -p tcp -e 1540 -c 2 -a 0 -i 5 -k AGT
h -t 0.166447586 -s 0 -d -1 -p tcp -e 1540 -c 2 -a 0 -i 5 -k AGT
+ -t 0.166447586 -s 0 -d -1 -p tcp -e 1540 -c 2 -a 0 -i 6 -k AGT 
- -t 0.166447586 -s 0 -d -1 -p tcp -e 1540 -c 2 -a 0 -i 6 -k AGT
h -t 0.166447586 -s 0 -d -1 -p tcp -e 1540 -c 2 -a 0 -i 6 -k AGT
+ -t 0.166447586 -s 0 -d 3 -p tcp -e 1540 -c 2 -a 0 -i 5 -k RTR 
- -t 0.166447586 -s 0 -d 3 -p tcp -e 1540 -c 2 -a 0 -i 5 -k RTR
h -t 0.166447586 -s 0 -d 3 -p tcp -e 1540 -c 2 -a 0 -i 5 -k RTR
+ -t 0.166447586 -s 0 -d 3 -p tcp -e 1540 -c 2 -a 0 -i 6 -k RTR 
- -t 0.166447586 -s 0 -d 3 -p tcp -e 1540 -c 2 -a 0 -i 6 -k RTR
h -t 0.166447586 -s 0 -d 3 -p tcp -e 1540 -c 2 -a 0 -i 6 -k RTR
+ -t 0.180658320 -s 4 -d 24 -p tcp -e 1540 -c 2 -a 0 -i 3 -k RTR 
- -t 0.180658320 -s 4 -d 24 -p tcp -e 1540 -c 2 -a 0 -i 3 -k RTR
h -t 0.180658320 -s 4 -d 24 -p tcp -e 1540 -c 2 -a 0 -i 3 -k RTR
r -t 0.194524816 -s 24 -d 24 -p tcp -e 1540 -c 2 -a 0 -i 3 -k AGT
+ -t 0.194524816 -s 24 -d -1 -p ack -e 40 -c 2 -a 0 -i 7 -k AGT 
- -t 0.194524816 -s 24 -d -1 -p ack -e 40 -c 2 -a 0 -i 7 -k AGT
h -t 0.194524816 -s 24 -d -1 -p ack -e 40 -c 2 -a 0 -i 7 -k AGT
+ -t 0.194524816 -s 24 -d 4 -p ack -e 40 -c 2 -a 0 -i 7 -k RTR 
- -t 0.194524816 -s 24 -d 4 -p ack -e 40 -c 2 -a 0 -i 7 -k RTR
h -t 0.194524816 -s 24 -d 4 -p ack -e 40 -c 2 -a 0 -i 7 -k RTR
+ -t 0.208501572 -s 3 -d 7 -p tcp -e 1540 -c 2 -a 0 -i 5 -k RTR 
- -t 0.208501572 -s 3 -d 7 -p tcp -e 1540 -c 2 -a 0 -i 5 -k RTR
h -t 0.208501572 -s 3 -d 7 -p tcp -e 1540 -c 2 -a 0 -i 5 -k RTR
+ -t 0.222867115 -s 7 -d 4 -p tcp -e 1540 -c 2 -a 0 -i 5 -k RTR 
- -t 0.222867115 -s 7 -d 4 -p tcp -e 1540 -c 2 -a 0 -i 5 -k RTR
h -t 0.222867115 -s 7 -d 4 -p tcp -e 1540 -c 2 -a 0 -i 5 -k RTR
+ -t 0.237078454 -s 3 -d 7 -p tcp -e 1540 -c 2 -a 0 -i 6 -k RTR 
- -t 0.237078454 -s 3 -d 7 -p tcp -e 1540 -c 2 -a 0 -i 6 -k RTR
h -t 0.237078454 -s 3 -d 7 -p tcp -e 1540 -c 2 -a 0 -i 6 -k RTR
+ -t 0.251103997 -s 7 -d 4 -p tcp -e 1540 -c 2 -a 0 -i 6 -k RTR 
- -t 0.251103997 -s 7 -d 4 -p tcp -e 1540 -c 2 -a 0 -i 6 -k RTR
h -t 0.251103997 -s 7 -d 4 -p tcp -e 1540 -c 2 -a 0 -i 6 -k RTR
+ -t 0.264989535 -s 4 -d 24 -p tcp -e 1540 -c 2 -a 0 -i 5 -k RTR 
- -t 0.264989535 -s 4 -d 24 -p tcp -e 1540 -c 2 -a 0 -i 5 -k RTR
h -t 0.264989535 -s 4 -d 24 -p tcp -e 1540 -c 2 -a 0 -i 5 -k RTR
r -t 0.279056032 -s 24 -d 24 -p tcp -e 1540 -c 2 -a 0 -i 5 -k AGT
+ -t 0.279056032 -s 24 -d -1 -p ack -e 40 -c 2 -a 0 -i 8 -k AGT 
- -t 0.279056032 -s 24 -d -1 -p ack -e 40 -c 2 -a 0 -i 8 -k AGT
h -t 0.279056032 -s 24 -d -1 -p ack -e 40 -c 2 -a 0 -i 8 -k AGT
+ -t 0.279056032 -s 24 -d 4 -p ack -e 40 -c 2 -a 0 -i 8 -k RTR 
- -t 0.279056032 -s 24 -d 4 -p ack -e 40 -c 2 -a 0 -i 8 -k RTR
h -t 0.279056032 -s 24 -d 4 -p ack -e 40 -c 2 -a 0 -i 8 -k RTR
+ -t 0.281222528 -s 4 -d 7 -p ack -e 40 -c 2 -a 0 -i 7 -k RTR 
- -t 0.281222528 -s 4 -d 7 -p ack -e 40 -c 2 -a 0 -i 7 -k RTR
h -t 0.281222528 -s 4 -d 7 -p ack -e 40 -c 2 -a 0 -i 7 -k RTR
+ -t 0.283049857 -s 4 -d 7 -p ack -e 40 -c 2 -a 0 -i 8 -k RTR 
- -t 0.283049857 -s 4 -d 7 -p ack -e 40 -c 2 -a 0 -i 8 -k RTR
h -t 0.283049857 -s 4 -d 7 -p ack -e 40 -c 2 -a 0 -i 8 -k RTR
+ -t 0.285055395 -s 7 -d 3 -p ack -e 40 -c 2 -a 0 -i 7 -k RTR 
- -t 0.285055395 -s 7 -d 3 -p ack -e 40 -c 2 -a 0 -i 7 -k RTR
h -t 0.285055395 -s 7 -d 3 -p ack -e 40 -c 2 -a 0 -i 7 -k RTR
+ -t 0.299040934 -s 4 -d 24 -p tcp -e 1540 -c 2 -a 0 -i 6 -k RTR 
- -t 0.299040934 -s 4 -d 24 -p tcp -e 1540 -c 2 -a 0 -i 6 -k RTR
h -t 0.299040934 -s 4 -d 24 -p tcp -e 1540 -c 2 -a 0 -i 6 -k RTR
+ -t 0.301106990 -s 3 -d 0 -p ack -e 40 -c 2 -a 0 -i 7 -k RTR 
- -t 0.301106990 -s 3 -d 0 -p ack -e 40 -c 2 -a 0 -i 7 -k RTR
h -t 0.301106990 -s 3 -d 0 -p ack -e 40 -c 2 -a 0 -i 7 -k RTR
r -t 0.302933134 -s 0 -d 0 -p ack -e 40 -c 2 -a 0 -i 7 -k AGT
+ -t 0.302933134 -s 0 -d -1 -p tcp -e 1540 -c 2 -a 0 -i 9 -k AGT 
- -t 0.302933134 -s 0 -d -1 -p tcp -e 1540 -c 2 -a 0 -i 9 -k AGT
h -t 0.302933134 -s 0 -d -1 -p tcp -e 1540 -c 2 -a 0 -i 9 -k AGT
+ -t 0.302933134 -s 0 -d -1 -p tcp -e 1540 -c 2 -a 0 -i 10 -k AGT 
- -t 0.302933134 -s 0 -d -1 -p tcp -e 1540 -c 2 -a 0 -i 10 -k AGT
h -t 0.302933134 -s 0 -d -1 -p tcp -e 1540 -c 2 -a 0 -i 10 -k AGT
+ -t 0.302933134 -s 0 -d 3 -p tcp -e 1540 -c 2 -a 0 -i 9 -k RTR 
- -t 0.302933134 -s 0 -d 3 -p tcp -e 1540 -c 2 -a 0 -i 9 -k RTR
h -t 0.302933134 -s 0 -d 3 -p tcp -e 1540 -c 2 -a 0 -i 9 -k RTR
+ -t 0.302933134 -s 0 -d 3 -p tcp -e 1540 -c 2 -a 0 -i 10 -k RTR 
- -t 0.302933134 -s 0 -d 3 -p tcp -e 1540 -c 2 -a 0 -i 10 -k RTR
h -t 0.302933134 -s 0 -d 3 -p tcp -e 1540 -c 2 -a 0 -i 10 -k RTR
+ -t 0.317119278 -s 3 -d 7 -p tcp -e 1540 -c 2 -a 0 -i 9 -k RTR 
- -t 0.317119278 -s 3 -d 7 -p tcp -e 1540 -c 2 -a 0 -i 9 -k RTR
h -t 0.317119278 -s 3 -d 7 -p tcp -e 1540 -c 2 -a 0 -i 9 -k RTR
+ -t 0.319429726 -s 7 -d 3 -p ack -e 40 -c 2 -a 0 -i 8 -k RTR 
- -t 0.319429726 -s 7 -d 3 -p ack -e 40 -c 2 -a 0 -i 8 -k RTR
h -t 0.319429726 -s 7 -d 3 -p ack -e 40 -c 2 -a 0 -i 8 -k RTR
+ -t 0.333325667 -s 7 -d 4 -p tcp -e 1540 -c 2 -a 0 -i 9 -k RTR 
- -t 0.333325667 -s 7 -d 4 -p tcp -e 1540 -c 2 -a 0 -i 9 -k RTR
h -t 0.333325667 -s 7 -d 4 -p tcp -e 1540 -c 2 -a 0 -i 9 -k RTR
+ -t 0.335231210 -s 3 -d 0 -p ack -e 40 -c 2 -a 0 -i 8 -k RTR 
- -t 0.335231210 -s 3 -d 0 -p ack -e 40 -c 2 -a 0 -i 8 -k RTR
h -t 0.335231210 -s 3 -d 0 -p ack -e 40 -c 2 -a 0 -i 8 -k RTR
+ -t 0.349097263 -s 4 -d 24 -p tcp -e 1540 -c 2 -a 0 -i 9 -k RTR 
- -t 0.349097263 -s 4 -d 24 -p tcp -e 1540 -c 2 -a 0 -i 9 -k RTR
h -t 0.349097263 -s 4 -d 24 -p tcp -e 1540 -c 2 -a 0 -i 9 -k RTR
r -t 0.363383760 -s 24 -d 24 -p tcp -e 1540 -c 2 -a 0 -i 6 -k AGT
+ -t 0.363383760 -s 24 -d -1 -p ack -e 40 -c 2 -a 0 -i 11 -k AGT 
- -t 0.363383760 -s 24 -d -1 -p ack -e 40 -c 2 -a 0 -i 11 -k AGT
h -t 0.363383760 -s 24 -d -1 -p ack -e 40 -c 2 -a 0 -i 11 -k AGT
+ -t 0.363383760 -s 24 -d 4 -p ack -e 40 -c 2 -a 0 -i 11 -k RTR 
- -t 0.363383760 -s 24 -d 4 -p ack -e 40 -c 2 -a 0 -i 11 -k RTR
h -t 0.363383760 -s 24 -d 4 -p ack -e 40 -c 2 -a 0 -i 11 -k RTR
r -t 0.377211088 -s 24 -d 24 -p tcp -e 1540 -c 2 -a 0 -i 9 -k AGT
+ -t 0.377211088 -s 24 -d -1 -p ack -e 40 -c 2 -a 0 -i 12 -k AGT 
- -t 0.377211088 -s 24 -d -1 -p ack -e 40 -c 2 -a 0 -i 12 -k AGT
h -t 0.377211088 -s 24 -d -1 -p ack -e 40 -c 2 -a 0 -i 12 -k AGT
+ -t 0.377211088 -s 24 -d 4 -p ack -e 40 -c 2 -a 0 -i 12 -k RTR 
- -t 0.377211088 -s 24 -d 4 -p ack -e 40 -c 2 -a 0 -i 12 -k RTR
h -t 0.377211088 -s 24 -d 4 -p ack -e 40 -c 2 -a 0 -i 12 -k RTR
r -t 0.380504959 -s 0 -d 0 -p ack -e 40 -c 2 -a 0 -i 8 -k AGT
+ -t 0.380504959 -s 0 -d -1 -p tcp -e 1540 -c 2 -a 0 -i 13 -k AGT 
- -t 0.380504959 -s 0 -d -1 -p tcp -e 1540 -c 2 -a 0 -i 13 -k AGT
h -t 0.380504959 -s 0 -d -1 -p tcp -e 1540 -c 2 -a 0 -i 13 -k AGT
+ -t 0.380504959 -s 0 -d -1 -p tcp -e 1540 -c 2 -a 0 -i 14 -k AGT 
- -t 0.380504959 -s 0 -d -1 -p tcp -e 1540 -c 2 -a 0 -i 14 -k AGT
h -t 0.380504959 -s 0 -d -1 -p tcp -e 1540 -c 2 -a 0 -i 14 -k AGT
+ -t 0.380504959 -s 0 -d 3 -p tcp -e 1540 -c 2 -a 0 -i 13 -k RTR 
- -t 0.380504959 -s 0 -d 3 -p tcp -e 1540 -c 2 -a 0 -i 13 -k RTR
h -t 0.380504959 -s 0 -d 3 -p tcp -e 1540 -c 2 -a 0 -i 13 -k RTR
+ -t 0.380504959 -s 0 -d 3 -p tcp -e 1540 -c 2 -a 0 -i 14 -k RTR 
- -t 0.380504959 -s 0 -d 3 -p tcp -e 1540 -c 2 -a 0 -i 14 -k RTR
h -t 0.380504959 -s 0 -d 3 -p tcp -e 1540 -c 2 -a 0 -i 14 -k RTR
+ -t 0.383502468 -s 4 -d 7 -p ack -e 40 -c 2 -a 0 -i 11 -k RTR 
- -t 0.383502468 -s 4 -d 7 -p ack -e 40 -c 2 -a 0 -i 11 -k RTR
h -t 0.383502468 -s 4 -d 7 -p ack -e 40 -c 2 -a 0 -i 11 -k RTR
+ -t 0.385368006 -s 7 -d 3 -p ack -e 40 -c 2 -a 0 -i 11 -k RTR 
- -t 0.385368006 -s 7 -d 3 -p ack -e 40 -c 2 -a 0 -i 11 -k RTR
h -t 0.385368006 -s 7 -d 3 -p ack -e 40 -c 2 -a 0 -i 11 -k RTR
+ -t 0.387693549 -s 3 -d 0 -p ack -e 40 -c 2 -a 0 -i 11 -k RTR 
- -t 0.387693549 -s 3 -d 0 -p ack -e 40 -c 2 -a 0 -i 11 -k RTR
h -t 0.387693549 -s 3 -d 0 -p ack -e 40 -c 2 -a 0 -i 11 -k RTR
+ -t 0.401690374 -s 3 -d 7 -p tcp -e 1540 -c 2 -a 0 -i 10 -k RTR 
- -t 0.401690374 -s 3 -d 7 -p tcp -e 1540 -c 2 -a 0 -i 10 -k RTR
h -t 0.401690374 -s 3 -d 7 -p tcp -e 1540 -c 2 -a 0 -i 10 -k RTR
+ -t 0.415817232 -s 3 -d 7 -p tcp -e 1540 -c 2 -a 0 -i 13 -k RTR 
- -t 0.415817232 -s 3 -d 7 -p tcp -e 1540 -c 2 -a 0 -i 13 -k RTR
h -t 0.415817232 -s 3 -d 7 -p tcp -e 1540 -c 2 -a 0 -i 13 -k RTR
r -t 0.417783376 -s 0 -d 0 -p ack -e 40 -c 2 -a 0 -i 11 -k AGT
+ -t 0.417783376 -s 0 -d -1 -p tcp -e 1540 -c 2 -a 0 -i 15 -k AGT 
- -t 0.417783376 -s 0 -d -1 -p tcp -e 1540 -c 2 -a 0 -i 15 -k AGT
h -t 0.417783376 -s 0 -d -1 -p tcp -e 1540 -c 2 -a 0 -i 15 -k AGT
+ -t 0.417783376 -s 0 -d -1 -p tcp -e 1540 -c 2 -a 0 -i 16 -k AGT 
- -t 0.417783376 -s 0 -d -1 -p tcp -e 1540 -c 2 -a 0 -i 16 -k AGT
h -t 0.417783376 -s 0 -d -1 -p tcp -e 1540 -c 2 -a 0 -i 16 -k AGT
+ -t 0.417783376 -s 0 -d 3 -p tcp -e 1540 -c 2 -a 0 -i 15 -k RTR 
- -t 0.417783376 -s 0 -d 3 -p tcp -e 1540 -c 2 -a 0 -i 15 -k RTR
h -t 0.417783376 -s 0 -d 3 -p tcp -e 1540 -c 2 -a 0 -i 15 -k RTR
+ -t 0.417783376 -s 0 -d 3 -p tcp -e 1540 -c 2 -a 0 -i 16 -k RTR 
- -t 0.417783376 -s 0 -d 3 -p tcp -e 1540 -c 2 -a 0 -i 16 -k RTR
h -t 0.417783376 -s 0 -d 3 -p tcp -e 1540 -c 2 -a 0 -i 16 -k RTR
+ -t 0.431629634 -s 7 -d 4 -p tcp -e 1540 -c 2 -a 0 -i 10 -k RTR 
- -t 0.431629634 -s 7 -d 4 -p tcp -e 1540 -c 2 -a 0 -i 10 -k RTR
h -t 0.431629634 -s 7 -d 4 -p tcp -e 1540 -c 2 -a 0 -i 10 -k RTR
+ -t 0.445455173 -s 4 -d 24 -p tcp -e 1540 -c 2 -a 0 -i 10 -k RTR 
- -t 0.445455173 -s 4 -d 24 -p tcp -e 1540 -c 2 -a 0 -i 10 -k RTR
h -t 0.445455173 -s 4 -d 24 -p tcp -e 1540 -c 2 -a 0 -i 10 -k RTR
+ -t 0.459725626 -s 7 -d 4 -p tcp -e 1540 -c 2 -a 0 -i 13 -k RTR 
- -t 0.459725626 -s 7 -d 4 -p tcp -e 1540 -c 2 -a 0 -i 13 -k RTR
h -t 0.459725626 -s 7 -d 4 -p tcp -e 1540 -c 2 -a 0 -i 13 -k RTR
+ -t 0.473571165 -s 4 -d 24 -p tcp -e 1540 -c 2 -a 0 -i 13 -k RTR 
- -t 0.473571165 -s 4 -d 24 -p tcp -e 1540 -c 2 -a 0 -i 13 -k RTR
h -t 0.473571165 -s 4 -d 24 -p tcp -e 1540 -c 2 -a 0 -i 13 -k RTR
r -t 0.487517661 -s 24 -d 24 -p tcp -e 1540 -c 2 -a 0 -i 10 -k AGT
+ -t 0.487517661 -s 24 -d -1 -p ack -e 40 -c 2 -a 0 -i 17 -k AGT 
- -t 0.487517661 -s 24 -d -1 -p ack -e 40 -c 2 -a 0 -i 17 -k AGT
h -t 0.487517661 -s 24 -d -1 -p ack -e 40 -c 2 -a 0 -i 17 -k AGT
+ -t 0.487517661 -s 24 -d 4 -p ack -e 40 -c 2 -a 0 -i 17 -k RTR 
- -t 0.487517661 -s 24 -d 4 -p ack -e 40 -c 2 -a 0 -i 17 -k RTR
h -t 0.487517661 -s 24 -d 4 -p ack -e 40 -c 2 -a 0 -i 17 -k RTR
+ -t 0.501614417 -s 3 -d 7 -p tcp -e 1540 -c 2 -a 0 -i 14 -k RTR 
- -t 0.501614417 -s 3 -d 7 -p tcp -e 1540 -c 2 -a 0 -i 14 -k RTR