n -t * -s 0  -x 683 -y 243 -Z 0 -z 25  -v circle -c black
n -t * -s 1  -x 949 -y 356 -Z 0 -z 25  -v circle -c black
n -t * -s 2  -x 311 -y 348 -Z 0 -z 25  -v circle -c black
n -t * -s 3  -x 672 -y 423 -Z 0 -z 25  -v circle -c black
n -t * -s 4  -x 978 -y 378 -Z 0 -z 25  -v circle -c black
n -t * -s 5  -x 757 -y 409 -Z 0 -z 25  -v circle -c black
n -t * -s 6  -x 315 -y 508 -Z 0 -z 25  -v circle -c black
n -t * -s 7  -x 198 -y 190 -Z 0 -z 25  -v circle -c black
n -t * -s 8  -x 573 -y 789 -Z 0 -z 25  -v circle -c black
n -t * -s 9  -x 488 -y 430 -Z 0 -z 25  -v circle -c black
V -t * -v 1.0a5 -a 0
W -t * -x 1000 -y 1000
A -t * -n 1 -p 0 -o 0x7fffffff -c 30 -a 1
A -t * -h 1 -m 1073741823 -s 0
n -t 1.000000 -s 0 -x 683.000000 -y 243.000000 -U -5.631716 -V 4.157376 -T 75.287883
n -t 1.000000 -s 1 -x 949.000000 -y 356.000000 -U -4.814395 -V -1.349667 -T 171.153382
n -t 1.000000 -s 2 -x 311.000000 -y 348.000000 -U -3.987449 -V 6.935435 -T 58.684139
n -t 1.000000 -s 3 -x 672.000000 -y 423.000000 -U -0.994704 -V 1.735098 -T 310.645296
n -t 1.000000 -s 4 -x 978.000000 -y 378.000000 -U -5.956742 -V 8.032262 -T 48.180702
n -t 1.000000 -s 5 -x 757.000000 -y 409.000000 -U -0.921379 -V -0.388664 -T 367.926623
n -t 1.000000 -s 6 -x 315.000000 -y 508.000000 -U 0.000000 -V 0.000000 -T 0.000000
n -t 1.000000 -s 7 -x 198.000000 -y 190.000000 -U -3.042990 -V 5.171094 -T 50.279497
n -t 1.000000 -s 8 -x 573.000000 -y 789.000000 -U 2.984166 -V -4.011826 -T 101.200791
n -t 1.000000 -s 9 -x 488.000000 -y 430.000000 -U -6.359992 -V 4.852885 -T 66.352280
+ -t 1.000000000 -s 0 -d -1 -p tcp -e 40 -c 2 -a 0 -i 0 -k AGT 
- -t 1.000000000 -s 0 -d -1 -p tcp -e 40 -c 2 -a 0 -i 0 -k AGT
h -t 1.000000000 -s 0 -d -1 -p tcp -e 40 -c 2 -a 0 -i 0 -k AGT
+ -t 1.000000000 -s 1 -d -1 -p tcp -e 40 -c 2 -a 0 -i 1 -k AGT 
- -t 1.000000000 -s 1 -d -1 -p tcp -e 40 -c 2 -a 0 -i 1 -k AGT
h -t 1.000000000 -s 1 -d -1 -p tcp -e 40 -c 2 -a 0 -i 1 -k AGT
+ -t 1.000000000 -s 2 -d -1 -p tcp -e 40 -c 2 -a 0 -i 2 -k AGT 
- -t 1.000000000 -s 2 -d -1 -p tcp -e 40 -c 2 -a 0 -i 2 -k AGT
h -t 1.000000000 -s 2 -d -1 -p tcp -e 40 -c 2 -a 0 -i 2 -k AGT
+ -t 1.000000000 -s 3 -d -1 -p tcp -e 40 -c 2 -a 0 -i 3 -k AGT 
- -t 1.000000000 -s 3 -d -1 -p tcp -e 40 -c 2 -a 0 -i 3 -k AGT
h -t 1.000000000 -s 3 -d -1 -p tcp -e 40 -c 2 -a 0 -i 3 -k AGT
+ -t 1.000000000 -s 4 -d -1 -p tcp -e 40 -c 2 -a 0 -i 4 -k AGT 
- -t 1.000000000 -s 4 -d -1 -p tcp -e 40 -c 2 -a 0 -i 4 -k AGT
h -t 1.000000000 -s 4 -d -1 -p tcp -e 40 -c 2 -a 0 -i 4 -k AGT
+ -t 1.000000000 -s 0 -d -1 -p AODV -e 48 -c 2 -a 0 -i 0 -k RTR 
- -t 1.000000000 -s 0 -d -1 -p AODV -e 48 -c 2 -a 0 -i 0 -k RTR
h -t 1.000000000 -s 0 -d -1 -p AODV -e 48 -c 2 -a 0 -i 0 -k RTR
+ -t 1.000000000 -s 1 -d -1 -p AODV -e 48 -c 2 -a 0 -i 0 -k RTR 
- -t 1.000000000 -s 1 -d -1 -p AODV -e 48 -c 2 -a 0 -i 0 -k RTR
h -t 1.000000000 -s 1 -d -1 -p AODV -e 48 -c 2 -a 0 -i 0 -k RTR
+ -t 1.000000000 -s 2 -d -1 -p AODV -e 48 -c 2 -a 0 -i 0 -k RTR 
- -t 1.000000000 -s 2 -d -1 -p AODV -e 48 -c 2 -a 0 -i 0 -k RTR
h -t 1.000000000 -s 2 -d -1 -p AODV -e 48 -c 2 -a 0 -i 0 -k RTR
+ -t 1.000000000 -s 3 -d -1 -p AODV -e 48 -c 2 -a 0 -i 0 -k RTR 
- -t 1.000000000 -s 3 -d -1 -p AODV -e 48 -c 2 -a 0 -i 0 -k RTR
h -t 1.000000000 -s 3 -d -1 -p AODV -e 48 -c 2 -a 0 -i 0 -k RTR
+ -t 1.000000000 -s 4 -d -1 -p AODV -e 48 -c 2 -a 0 -i 0 -k RTR 
- -t 1.000000000 -s 4 -d -1 -p AODV -e 48 -c 2 -a 0 -i 0 -k RTR
h -t 1.000000000 -s 4 -d -1 -p AODV -e 48 -c 2 -a 0 -i 0 -k RTR
r -t 1.000948601 -s 3 -d -1 -p AODV -e 48 -c 2 -a 0 -i 0 -k RTR
r -t 1.000948606 -s 5 -d -1 -p AODV -e 48 -c 2 -a 0 -i 0 -k RTR
r -t 1.002086888 -s 5 -d -1 -p AODV -e 48 -c 2 -a 0 -i 0 -k RTR
r -t 1.002087202 -s 0 -d -1 -p AODV -e 48 -c 2 -a 0 -i 0 -k RTR
r -t 1.002087215 -s 9 -d -1 -p AODV -e 48 -c 2 -a 0 -i 0 -k RTR
+ -t 1.002590060 -s 5 -d -1 -p AODV -e 48 -c 2 -a 0 -i 0 -k RTR 
- -t 1.002590060 -s 5 -d -1 -p AODV -e 48 -c 2 -a 0 -i 0 -k RTR
h -t 1.002590060 -s 5 -d -1 -p AODV -e 48 -c 2 -a 0 -i 0 -k RTR
+ -t 1.003225285 -s 0 -d -1 -p AODV -e 48 -c 2 -a 0 -i 0 -k RTR 
- -t 1.003225285 -s 0 -d -1 -p AODV -e 48 -c 2 -a 0 -i 0 -k RTR
h -t 1.003225285 -s 0 -d -1 -p AODV -e 48 -c 2 -a 0 -i 0 -k RTR
r -t 1.003509672 -s 4 -d -1 -p AODV -e 48 -c 2 -a 0 -i 0 -k RTR
r -t 1.003510215 -s 5 -d -1 -p AODV -e 48 -c 2 -a 0 -i 0 -k RTR
r -t 1.003550364 -s 6 -d -1 -p AODV -e 48 -c 2 -a 0 -i 0 -k RTR
r -t 1.003550478 -s 7 -d -1 -p AODV -e 48 -c 2 -a 0 -i 0 -k RTR
+ -t 1.003550478 -s 7 -d 2 -p AODV -e 44 -c 2 -a 0 -i 0 -k RTR 
- -t 1.003550478 -s 7 -d 2 -p AODV -e 44 -c 2 -a 0 -i 0 -k RTR
h -t 1.003550478 -s 7 -d 2 -p AODV -e 44 -c 2 -a 0 -i 0 -k RTR
r -t 1.004607794 -s 1 -d -1 -p AODV -e 48 -c 2 -a 0 -i 0 -k RTR
r -t 1.004608416 -s 5 -d -1 -p AODV -e 48 -c 2 -a 0 -i 0 -k RTR
+ -t 1.004608416 -s 5 -d 4 -p AODV -e 44 -c 2 -a 0 -i 0 -k RTR 
- -t 1.004608416 -s 5 -d 4 -p AODV -e 44 -c 2 -a 0 -i 0 -k RTR
h -t 1.004608416 -s 5 -d 4 -p AODV -e 44 -c 2 -a 0 -i 0 -k RTR
+ -t 1.006997625 -s 5 -d -1 -p AODV -e 48 -c 2 -a 0 -i 0 -k RTR 
- -t 1.006997625 -s 5 -d -1 -p AODV -e 48 -c 2 -a 0 -i 0 -k RTR
h -t 1.006997625 -s 5 -d -1 -p AODV -e 48 -c 2 -a 0 -i 0 -k RTR
r -t 1.007463208 -s 3 -d -1 -p AODV -e 48 -c 2 -a 0 -i 0 -k RTR
r -t 1.007463527 -s 0 -d -1 -p AODV -e 48 -c 2 -a 0 -i 0 -k RTR
r -t 1.007463585 -s 1 -d -1 -p AODV -e 48 -c 2 -a 0 -i 0 -k RTR
r -t 1.007463664 -s 4 -d -1 -p AODV -e 48 -c 2 -a 0 -i 0 -k RTR
+ -t 1.007637220 -s 6 -d -1 -p AODV -e 48 -c 2 -a 0 -i 0 -k RTR 
- -t 1.007637220 -s 6 -d -1 -p AODV -e 48 -c 2 -a 0 -i 0 -k RTR
h -t 1.007637220 -s 6 -d -1 -p AODV -e 48 -c 2 -a 0 -i 0 -k RTR
r -t 1.008401208 -s 3 -d -1 -p AODV -e 48 -c 2 -a 0 -i 0 -k RTR
r -t 1.008401527 -s 0 -d -1 -p AODV -e 48 -c 2 -a 0 -i 0 -k RTR
r -t 1.008401585 -s 1 -d -1 -p AODV -e 48 -c 2 -a 0 -i 0 -k RTR
r -t 1.008401664 -s 4 -d -1 -p AODV -e 48 -c 2 -a 0 -i 0 -k RTR
+ -t 1.008487565 -s 5 -d -1 -p AODV -e 48 -c 2 -a 0 -i 0 -k RTR 
- -t 1.008487565 -s 5 -d -1 -p AODV -e 48 -c 2 -a 0 -i 0 -k RTR
h -t 1.008487565 -s 5 -d -1 -p AODV -e 48 -c 2 -a 0 -i 0 -k RTR
+ -t 1.009311836 -s 3 -d -1 -p AODV -e 48 -c 2 -a 0 -i 0 -k RTR 
- -t 1.009311836 -s 3 -d -1 -p AODV -e 48 -c 2 -a 0 -i 0 -k RTR
h -t 1.009311836 -s 3 -d -1 -p AODV -e 48 -c 2 -a 0 -i 0 -k RTR
+ -t 1.010275179 -s 0 -d -1 -p AODV -e 48 -c 2 -a 0 -i 0 -k RTR 
- -t 1.010275179 -s 0 -d -1 -p AODV -e 48 -c 2 -a 0 -i 0 -k RTR
h -t 1.010275179 -s 0 -d -1 -p AODV -e 48 -c 2 -a 0 -i 0 -k RTR
+ -t 1.010684492 -s 9 -d -1 -p AODV -e 48 -c 2 -a 0 -i 0 -k RTR 
- -t 1.010684492 -s 9 -d -1 -p AODV -e 48 -c 2 -a 0 -i 0 -k RTR
h -t 1.010684492 -s 9 -d -1 -p AODV -e 48 -c 2 -a 0 -i 0 -k RTR
r -t 1.010822964 -s 2 -d -1 -p AODV -e 48 -c 2 -a 0 -i 0 -k RTR
+ -t 1.011579958 -s 4 -d -1 -p AODV -e 48 -c 2 -a 0 -i 0 -k RTR 
- -t 1.011579958 -s 4 -d -1 -p AODV -e 48 -c 2 -a 0 -i 0 -k RTR
h -t 1.011579958 -s 4 -d -1 -p AODV -e 48 -c 2 -a 0 -i 0 -k RTR
r -t 1.012106228 -s 3 -d -1 -p AODV -e 48 -c 2 -a 0 -i 0 -k RTR
r -t 1.012106546 -s 0 -d -1 -p AODV -e 48 -c 2 -a 0 -i 0 -k RTR
r -t 1.012106604 -s 1 -d -1 -p AODV -e 48 -c 2 -a 0 -i 0 -k RTR
r -t 1.012106684 -s 4 -d -1 -p AODV -e 48 -c 2 -a 0 -i 0 -k RTR
+ -t 1.012443283 -s 3 -d -1 -p AODV -e 48 -c 2 -a 0 -i 0 -k RTR 
- -t 1.012443283 -s 3 -d -1 -p AODV -e 48 -c 2 -a 0 -i 0 -k RTR
h -t 1.012443283 -s 3 -d -1 -p AODV -e 48 -c 2 -a 0 -i 0 -k RTR
+ -t 1.013006046 -s 1 -d -1 -p AODV -e 48 -c 2 -a 0 -i 0 -k RTR 
- -t 1.013006046 -s 1 -d -1 -p AODV -e 48 -c 2 -a 0 -i 0 -k RTR
h -t 1.013006046 -s 1 -d -1 -p AODV -e 48 -c 2 -a 0 -i 0 -k RTR
+ -t 1.013337639 -s 1 -d -1 -p AODV -e 48 -c 2 -a 0 -i 0 -k RTR 
- -t 1.013337639 -s 1 -d -1 -p AODV -e 48 -c 2 -a 0 -i 0 -k RTR
h -t 1.013337639 -s 1 -d -1 -p AODV -e 48 -c 2 -a 0 -i 0 -k RTR
r -t 1.013473787 -s 3 -d -1 -p AODV -e 48 -c 2 -a 0 -i 0 -k RTR
r -t 1.013473792 -s 5 -d -1 -p AODV -e 48 -c 2 -a 0 -i 0 -k RTR
+ -t 1.014237074 -s 1 -d -1 -p AODV -e 48 -c 2 -a 0 -i 0 -k RTR 
- -t 1.014237074 -s 1 -d -1 -p AODV -e 48 -c 2 -a 0 -i 0 -k RTR
h -t 1.014237074 -s 1 -d -1 -p AODV -e 48 -c 2 -a 0 -i 0 -k RTR
r -t 1.014371787 -s 3 -d -1 -p AODV -e 48 -c 2 -a 0 -i 0 -k RTR
r -t 1.014371792 -s 5 -d -1 -p AODV -e 48 -c 2 -a 0 -i 0 -k RTR
+ -t 1.015085983 -s 4 -d -1 -p AODV -e 48 -c 2 -a 0 -i 0 -k RTR 
- -t 1.015085983 -s 4 -d -1 -p AODV -e 48 -c 2 -a 0 -i 0 -k RTR
h -t 1.015085983 -s 4 -d -1 -p AODV -e 48 -c 2 -a 0 -i 0 -k RTR
r -t 1.015570074 -s 5 -d -1 -p AODV -e 48 -c 2 -a 0 -i 0 -k RTR
r -t 1.015570388 -s 0 -d -1 -p AODV -e 48 -c 2 -a 0 -i 0 -k RTR
r -t 1.015570401 -s 9 -d -1 -p AODV -e 48 -c 2 -a 0 -i 0 -k RTR
+ -t 1.015570401 -s 9 -d 3 -p AODV -e 44 -c 2 -a 0 -i 0 -k RTR 
- -t 1.015570401 -s 9 -d 3 -p AODV -e 44 -c 2 -a 0 -i 0 -k RTR
h -t 1.015570401 -s 9 -d 3 -p AODV -e 44 -c 2 -a 0 -i 0 -k RTR
r -t 1.016509015 -s 3 -d -1 -p AODV -e 48 -c 2 -a 0 -i 0 -k RTR
r -t 1.016509033 -s 6 -d -1 -p AODV -e 48 -c 2 -a 0 -i 0 -k RTR
+ -t 1.016509033 -s 6 -d 9 -p AODV -e 44 -c 2 -a 0 -i 0 -k RTR 
- -t 1.016509033 -s 6 -d 9 -p AODV -e 44 -c 2 -a 0 -i 0 -k RTR
h -t 1.016509033 -s 6 -d 9 -p AODV -e 44 -c 2 -a 0 -i 0 -k RTR
r -t 1.016509051 -s 2 -d -1 -p AODV -e 48 -c 2 -a 0 -i 0 -k RTR
r -t 1.018252079 -s 4 -d -1 -p AODV -e 48 -c 2 -a 0 -i 0 -k RTR
r -t 1.018252621 -s 5 -d -1 -p AODV -e 48 -c 2 -a 0 -i 0 -k RTR
+ -t 1.018792923 -s 4 -d -1 -p AODV -e 48 -c 2 -a 0 -i 0 -k RTR 
- -t 1.018792923 -s 4 -d -1 -p AODV -e 48 -c 2 -a 0 -i 0 -k RTR
h -t 1.018792923 -s 4 -d -1 -p AODV -e 48 -c 2 -a 0 -i 0 -k RTR
r -t 1.019150079 -s 4 -d -1 -p AODV -e 48 -c 2 -a 0 -i 0 -k RTR
r -t 1.019150621 -s 5 -d -1 -p AODV -e 48 -c 2 -a 0 -i 0 -k RTR
r -t 1.020288079 -s 4 -d -1 -p AODV -e 48 -c 2 -a 0 -i 0 -k RTR
r -t 1.020288621 -s 5 -d -1 -p AODV -e 48 -c 2 -a 0 -i 0 -k RTR
+ -t 1.020765924 -s 2 -d -1 -p AODV -e 48 -c 2 -a 0 -i 0 -k RTR 
- -t 1.020765924 -s 2 -d -1 -p AODV -e 48 -c 2 -a 0 -i 0 -k RTR
h -t 1.020765924 -s 2 -d -1 -p AODV -e 48 -c 2 -a 0 -i 0 -k RTR
r -t 1.022728856 -s 6 -d -1 -p AODV -e 48 -c 2 -a 0 -i 0 -k RTR
r -t 1.022728971 -s 7 -d -1 -p AODV -e 48 -c 2 -a 0 -i 0 -k RTR
r -t 1.023597175 -s 1 -d -1 -p AODV -e 48 -c 2 -a 0 -i 0 -k RTR
r -t 1.023597796 -s 5 -d -1 -p AODV -e 48 -c 2 -a 0 -i 0 -k RTR
+ -t 1.025162027 -s 4 -d 5 -p tcp -e 40 -c 2 -a 0 -i 4 -k RTR 
- -t 1.025162027 -s 4 -d 5 -p tcp -e 40 -c 2 -a 0 -i 4 -k RTR
h -t 1.025162027 -s 4 -d 5 -p tcp -e 40 -c 2 -a 0 -i 4 -k RTR
r -t 1.026654148 -s 1 -d -1 -p AODV -e 48 -c 2 -a 0 -i 0 -k RTR
r -t 1.026654770 -s 5 -d -1 -p AODV -e 48 -c 2 -a 0 -i 0 -k RTR
r -t 1.027672148 -s 1 -d -1 -p AODV -e 48 -c 2 -a 0 -i 0 -k RTR
r -t 1.027672770 -s 5 -d -1 -p AODV -e 48 -c 2 -a 0 -i 0 -k RTR
+ -t 1.029392914 -s 2 -d 7 -p tcp -e 40 -c 2 -a 0 -i 2 -k RTR 
- -t 1.029392914 -s 2 -d 7 -p tcp -e 40 -c 2 -a 0 -i 2 -k RTR
h -t 1.029392914 -s 2 -d 7 -p tcp -e 40 -c 2 -a 0 -i 2 -k RTR
r -t 1.031386213 -s 7 -d 7 -p tcp -e 40 -c 2 -a 0 -i 2 -k AGT
+ -t 1.031386213 -s 7 -d -1 -p ack -e 40 -c 2 -a 0 -i 5 -k AGT 
- -t 1.031386213 -s 7 -d -1 -p ack -e 40 -c 2 -a 0 -i 5 -k AGT
h -t 1.031386213 -s 7 -d -1 -p ack -e 40 -c 2 -a 0 -i 5 -k AGT
+ -t 1.031386213 -s 7 -d 2 -p ack -e 40 -c 2 -a 0 -i 5 -k RTR 
- -t 1.031386213 -s 7 -d 2 -p ack -e 40 -c 2 -a 0 -i 5 -k RTR
h -t 1.031386213 -s 7 -d 2 -p ack -e 40 -c 2 -a 0 -i 5 -k RTR
+ -t 1.032489038 -s 7 -d -1 -p AODV -e 48 -c 2 -a 0 -i 0 -k RTR 
- -t 1.032489038 -s 7 -d -1 -p AODV -e 48 -c 2 -a 0 -i 0 -k RTR
h -t 1.032489038 -s 7 -d -1 -p AODV -e 48 -c 2 -a 0 -i 0 -k RTR
r -t 1.033312156 -s 2 -d 2 -p ack -e 40 -c 2 -a 0 -i 5 -k AGT
+ -t 1.033312156 -s 2 -d -1 -p tcp -e 1540 -c 2 -a 0 -i 6 -k AGT 
- -t 1.033312156 -s 2 -d -1 -p tcp -e 1540 -c 2 -a 0 -i 6 -k AGT
h -t 1.033312156 -s 2 -d -1 -p tcp -e 1540 -c 2 -a 0 -i 6 -k AGT
+ -t 1.033312156 -s 2 -d -1 -p tcp -e 1540 -c 2 -a 0 -i 7 -k AGT 
- -t 1.033312156 -s 2 -d -1 -p tcp -e 1540 -c 2 -a 0 -i 7 -k AGT
h -t 1.033312156 -s 2 -d -1 -p tcp -e 1540 -c 2 -a 0 -i 7 -k AGT
+ -t 1.033312156 -s 2 -d 7 -p tcp -e 1540 -c 2 -a 0 -i 6 -k RTR 
- -t 1.033312156 -s 2 -d 7 -p tcp -e 1540 -c 2 -a 0 -i 6 -k RTR
h -t 1.033312156 -s 2 -d 7 -p tcp -e 1540 -c 2 -a 0 -i 6 -k RTR
+ -t 1.033312156 -s 2 -d 7 -p tcp -e 1540 -c 2 -a 0 -i 7 -k RTR 
- -t 1.033312156 -s 2 -d 7 -p tcp -e 1540 -c 2 -a 0 -i 7 -k RTR
h -t 1.033312156 -s 2 -d 7 -p tcp -e 1540 -c 2 -a 0 -i 7 -k RTR
r -t 1.047675700 -s 7 -d 7 -p tcp -e 1540 -c 2 -a 0 -i 6 -k AGT
+ -t 1.047675700 -s 7 -d -1 -p ack -e 40 -c 2 -a 0 -i 8 -k AGT 
- -t 1.047675700 -s 7 -d -1 -p ack -e 40 -c 2 -a 0 -i 8 -k AGT
h -t 1.047675700 -s 7 -d -1 -p ack -e 40 -c 2 -a 0 -i 8 -k AGT
+ -t 1.047675700 -s 7 -d 2 -p ack -e 40 -c 2 -a 0 -i 8 -k RTR 
- -t 1.047675700 -s 7 -d 2 -p ack -e 40 -c 2 -a 0 -i 8 -k RTR
h -t 1.047675700 -s 7 -d 2 -p ack -e 40 -c 2 -a 0 -i 8 -k RTR
r -t 1.048968348 -s 2 -d -1 -p AODV -e 48 -c 2 -a 0 -i 0 -k RTR
r -t 1.062520290 -s 7 -d 7 -p tcp -e 1540 -c 2 -a 0 -i 7 -k AGT
+ -t 1.062520290 -s 7 -d -1 -p ack -e 40 -c 2 -a 0 -i 9 -k AGT 
- -t 1.062520290 -s 7 -d -1 -p ack -e 40 -c 2 -a 0 -i 9 -k AGT
h -t 1.062520290 -s 7 -d -1 -p ack -e 40 -c 2 -a 0 -i 9 -k AGT
+ -t 1.062520290 -s 7 -d 2 -p ack -e 40 -c 2 -a 0 -i 9 -k RTR 
- -t 1.062520290 -s 7 -d 2 -p ack -e 40 -c 2 -a 0 -i 9 -k RTR
h -t 1.062520290 -s 7 -d 2 -p ack -e 40 -c 2 -a 0 -i 9 -k RTR
r -t 1.065016447 -s 5 -d -1 -p AODV -e 48 -c 2 -a 0 -i 0 -k RTR
r -t 1.065016760 -s 0 -d -1 -p AODV -e 48 -c 2 -a 0 -i 0 -k RTR
r -t 1.065016775 -s 9 -d -1 -p AODV -e 48 -c 2 -a 0 -i 0 -k RTR
+ -t 1.069080550 -s 9 -d -1 -p AODV -e 48 -c 2 -a 0 -i 0 -k RTR 
- -t 1.069080550 -s 9 -d -1 -p AODV -e 48 -c 2 -a 0 -i 0 -k RTR
h -t 1.069080550 -s 9 -d -1 -p AODV -e 48 -c 2 -a 0 -i 0 -k RTR
+ -t 1.070480373 -s 3 -d 0 -p AODV -e 44 -c 2 -a 0 -i 0 -k RTR 
- -t 1.070480373 -s 3 -d 0 -p AODV -e 44 -c 2 -a 0 -i 0 -k RTR
h -t 1.070480373 -s 3 -d 0 -p AODV -e 44 -c 2 -a 0 -i 0 -k RTR
+ -t 1.075251576 -s 0 -d 3 -p tcp -e 40 -c 2 -a 0 -i 0 -k RTR 
- -t 1.075251576 -s 0 -d 3 -p tcp -e 40 -c 2 -a 0 -i 0 -k RTR
h -t 1.075251576 -s 0 -d 3 -p tcp -e 40 -c 2 -a 0 -i 0 -k RTR
+ -t 1.077217377 -s 3 -d 9 -p tcp -e 40 -c 2 -a 0 -i 0 -k RTR 
- -t 1.077217377 -s 3 -d 9 -p tcp -e 40 -c 2 -a 0 -i 0 -k RTR
h -t 1.077217377 -s 3 -d 9 -p tcp -e 40 -c 2 -a 0 -i 0 -k RTR
r -t 1.078660293 -s 3 -d -1 -p AODV -e 48 -c 2 -a 0 -i 0 -k RTR
r -t 1.078660308 -s 6 -d -1 -p AODV -e 48 -c 2 -a 0 -i 0 -k RTR
r -t 1.078660327 -s 2 -d -1 -p AODV -e 48 -c 2 -a 0 -i 0 -k RTR
+ -t 1.078693830 -s 2 -d -1 -p AODV -e 48 -c 2 -a 0 -i 0 -k RTR 
- -t 1.078693830 -s 2 -d -1 -p AODV -e 48 -c 2 -a 0 -i 0 -k RTR
h -t 1.078693830 -s 2 -d -1 -p AODV -e 48 -c 2 -a 0 -i 0 -k RTR
r -t 1.079642362 -s 6 -d -1 -p AODV -e 48 -c 2 -a 0 -i 0 -k RTR
r -t 1.079642478 -s 7 -d -1 -p AODV -e 48 -c 2 -a 0 -i 0 -k RTR
r -t 1.079642479 -s 9 -d -1 -p AODV -e 48 -c 2 -a 0 -i 0 -k RTR
+ -t 1.081206253 -s 9 -d 3 -p AODV -e 44 -c 2 -a 0 -i 0 -k RTR 
- -t 1.081206253 -s 9 -d 3 -p AODV -e 44 -c 2 -a 0 -i 0 -k RTR
h -t 1.081206253 -s 9 -d 3 -p AODV -e 44 -c 2 -a 0 -i 0 -k RTR
+ -t 1.081710198 -s 6 -d -1 -p AODV -e 48 -c 2 -a 0 -i 0 -k RTR 
- -t 1.081710198 -s 6 -d -1 -p AODV -e 48 -c 2 -a 0 -i 0 -k RTR
h -t 1.081710198 -s 6 -d -1 -p AODV -e 48 -c 2 -a 0 -i 0 -k RTR
+ -t 1.083084099 -s 3 -d 9 -p tcp -e 40 -c 2 -a 0 -i 3 -k RTR 
- -t 1.083084099 -s 3 -d 9 -p tcp -e 40 -c 2 -a 0 -i 3 -k RTR
h -t 1.083084099 -s 3 -d 9 -p tcp -e 40 -c 2 -a 0 -i 3 -k RTR
r -t 1.084929945 -s 9 -d 9 -p tcp -e 40 -c 2 -a 0 -i 0 -k AGT
+ -t 1.084929945 -s 9 -d -1 -p ack -e 40 -c 2 -a 0 -i 10 -k AGT 
- -t 1.084929945 -s 9 -d -1 -p ack -e 40 -c 2 -a 0 -i 10 -k AGT
h -t 1.084929945 -s 9 -d -1 -p ack -e 40 -c 2 -a 0 -i 10 -k AGT
+ -t 1.084929945 -s 9 -d 3 -p ack -e 40 -c 2 -a 0 -i 10 -k RTR 
- -t 1.084929945 -s 9 -d 3 -p ack -e 40 -c 2 -a 0 -i 10 -k RTR
h -t 1.084929945 -s 9 -d 3 -p ack -e 40 -c 2 -a 0 -i 10 -k RTR
r -t 1.086513084 -s 2 -d -1 -p AODV -e 48 -c 2 -a 0 -i 0 -k RTR
r -t 1.086513183 -s 9 -d -1 -p AODV -e 48 -c 2 -a 0 -i 0 -k RTR
+ -t 1.088065029 -s 3 -d 0 -p ack -e 40 -c 2 -a 0 -i 10 -k RTR 
- -t 1.088065029 -s 3 -d 0 -p ack -e 40 -c 2 -a 0 -i 10 -k RTR
h -t 1.088065029 -s 3 -d 0 -p ack -e 40 -c 2 -a 0 -i 10 -k RTR
+ -t 1.088442434 -s 7 -d -1 -p AODV -e 48 -c 2 -a 0 -i 0 -k RTR 
- -t 1.088442434 -s 7 -d -1 -p AODV -e 48 -c 2 -a 0 -i 0 -k RTR
h -t 1.088442434 -s 7 -d -1 -p AODV -e 48 -c 2 -a 0 -i 0 -k RTR
+ -t 1.090030875 -s 9 -d 6 -p tcp -e 40 -c 2 -a 0 -i 3 -k RTR 
- -t 1.090030875 -s 9 -d 6 -p tcp -e 40 -c 2 -a 0 -i 3 -k RTR
h -t 1.090030875 -s 9 -d 6 -p tcp -e 40 -c 2 -a 0 -i 3 -k RTR
r -t 1.094091195 -s 2 -d 2 -p ack -e 40 -c 2 -a 0 -i 8 -k AGT
+ -t 1.094091195 -s 2 -d -1 -p tcp -e 1540 -c 2 -a 0 -i 11 -k AGT 
- -t 1.094091195 -s 2 -d -1 -p tcp -e 1540 -c 2 -a 0 -i 11 -k AGT
h -t 1.094091195 -s 2 -d -1 -p tcp -e 1540 -c 2 -a 0 -i 11 -k AGT
+ -t 1.094091195 -s 2 -d -1 -p tcp -e 1540 -c 2 -a 0 -i 12 -k AGT 
- -t 1.094091195 -s 2 -d -1 -p tcp -e 1540 -c 2 -a 0 -i 12 -k AGT
h -t 1.094091195 -s 2 -d -1 -p tcp -e 1540 -c 2 -a 0 -i 12 -k AGT
+ -t 1.094091195 -s 2 -d 7 -p tcp -e 1540 -c 2 -a 0 -i 11 -k RTR 
- -t 1.094091195 -s 2 -d 7 -p tcp -e 1540 -c 2 -a 0 -i 11 -k RTR
h -t 1.094091195 -s 2 -d 7 -p tcp -e 1540 -c 2 -a 0 -i 11 -k RTR
+ -t 1.094091195 -s 2 -d 7 -p tcp -e 1540 -c 2 -a 0 -i 12 -k RTR 
- -t 1.094091195 -s 2 -d 7 -p tcp -e 1540 -c 2 -a 0 -i 12 -k RTR
h -t 1.094091195 -s 2 -d 7 -p tcp -e 1540 -c 2 -a 0 -i 12 -k RTR
r -t 1.095724490 -s 2 -d -1 -p AODV -e 48 -c 2 -a 0 -i 0 -k RTR
r -t 1.097255786 -s 2 -d 2 -p ack -e 40 -c 2 -a 0 -i 9 -k AGT
+ -t 1.097255786 -s 2 -d -1 -p tcp -e 1540 -c 2 -a 0 -i 13 -k AGT 
- -t 1.097255786 -s 2 -d -1 -p tcp -e 1540 -c 2 -a 0 -i 13 -k AGT
h -t 1.097255786 -s 2 -d -1 -p tcp -e 1540 -c 2 -a 0 -i 13 -k AGT
+ -t 1.097255786 -s 2 -d -1 -p tcp -e 1540 -c 2 -a 0 -i 14 -k AGT 
- -t 1.097255786 -s 2 -d -1 -p tcp -e 1540 -c 2 -a 0 -i 14 -k AGT
h -t 1.097255786 -s 2 -d -1 -p tcp -e 1540 -c 2 -a 0 -i 14 -k AGT
+ -t 1.097255786 -s 2 -d 7 -p tcp -e 1540 -c 2 -a 0 -i 13 -k RTR 
- -t 1.097255786 -s 2 -d 7 -p tcp -e 1540 -c 2 -a 0 -i 13 -k RTR
h -t 1.097255786 -s 2 -d 7 -p tcp -e 1540 -c 2 -a 0 -i 13 -k RTR
+ -t 1.097255786 -s 2 -d 7 -p tcp -e 1540 -c 2 -a 0 -i 14 -k RTR 
- -t 1.097255786 -s 2 -d 7 -p tcp -e 1540 -c 2 -a 0 -i 14 -k RTR
h -t 1.097255786 -s 2 -d 7 -p tcp -e 1540 -c 2 -a 0 -i 14 -k RTR
r -t 1.111241729 -s 7 -d 7 -p tcp -e 1540 -c 2 -a 0 -i 11 -k AGT
+ -t 1.111241729 -s 7 -d -1 -p ack -e 40 -c 2 -a 0 -i 15 -k AGT 
- -t 1.111241729 -s 7 -d -1 -p ack -e 40 -c 2 -a 0 -i 15 -k AGT
h -t 1.111241729 -s 7 -d -1 -p ack -e 40 -c 2 -a 0 -i 15 -k AGT
+ -t 1.111241729 -s 7 -d 2 -p ack -e 40 -c 2 -a 0 -i 15 -k RTR 
- -t 1.111241729 -s 7 -d 2 -p ack -e 40 -c 2 -a 0 -i 15 -k RTR
h -t 1.111241729 -s 7 -d 2 -p ack -e 40 -c 2 -a 0 -i 15 -k RTR
r -t 1.114334915 -s 6 -d 6 -p tcp -e 40 -c 2 -a 0 -i 3 -k AGT
+ -t 1.114334915 -s 6 -d -1 -p ack -e 40 -c 2 -a 0 -i 16 -k AGT 
- -t 1.114334915 -s 6 -d -1 -p ack -e 40 -c 2 -a 0 -i 16 -k AGT
h -t 1.114334915 -s 6 -d -1 -p ack -e 40 -c 2 -a 0 -i 16 -k AGT
+ -t 1.114334915 -s 6 -d 9 -p ack -e 40 -c 2 -a 0 -i 16 -k RTR 
- -t 1.114334915 -s 6 -d 9 -p ack -e 40 -c 2 -a 0 -i 16 -k RTR
h -t 1.114334915 -s 6 -d 9 -p ack -e 40 -c 2 -a 0 -i 16 -k RTR
+ -t 1.116540804 -s 9 -d 3 -p ack -e 40 -c 2 -a 0 -i 16 -k RTR 
- -t 1.116540804 -s 9 -d 3 -p ack -e 40 -c 2 -a 0 -i 16 -k RTR
h -t 1.116540804 -s 9 -d 3 -p ack -e 40 -c 2 -a 0 -i 16 -k RTR
r -t 1.118486651 -s 3 -d 3 -p ack -e 40 -c 2 -a 0 -i 16 -k AGT
+ -t 1.118486651 -s 3 -d -1 -p tcp -e 1540 -c 2 -a 0 -i 17 -k AGT 
- -t 1.118486651 -s 3 -d -1 -p tcp -e 1540 -c 2 -a 0 -i 17 -k AGT
h -t 1.118486651 -s 3 -d -1 -p tcp -e 1540 -c 2 -a 0 -i 17 -k AGT
+ -t 1.118486651 -s 3 -d -1 -p tcp -e 1540 -c 2 -a 0 -i 18 -k AGT 
- -t 1.118486651 -s 3 -d -1 -p tcp -e 1540 -c 2 -a 0 -i 18 -k AGT
h -t 1.118486651 -s 3 -d -1 -p tcp -e 1540 -c 2 -a 0 -i 18 -k AGT
+ -t 1.118486651 -s 3 -d 9 -p tcp -e 1540 -c 2 -a 0 -i 17 -k RTR 
- -t 1.118486651 -s 3 -d 9 -p tcp -e 1540 -c 2 -a 0 -i 17 -k RTR
h -t 1.118486651 -s 3 -d 9 -p tcp -e 1540 -c 2 -a 0 -i 17 -k RTR
+ -t 1.118486651 -s 3 -d 9 -p tcp -e 1540 -c 2 -a 0 -i 18 -k RTR 
- -t 1.118486651 -s 3 -d 9 -p tcp -e 1540 -c 2 -a 0 -i 18 -k RTR
h -t 1.118486651 -s 3 -d 9 -p tcp -e 1540 -c 2 -a 0 -i 18 -k RTR
r -t 1.132897825 -s 7 -d 7 -p tcp -e 1540 -c 2 -a 0 -i 12 -k AGT
+ -t 1.132897825 -s 7 -d -1 -p ack -e 40 -c 2 -a 0 -i 19 -k AGT 
- -t 1.132897825 -s 7 -d -1 -p ack -e 40 -c 2 -a 0 -i 19 -k AGT
h -t 1.132897825 -s 7 -d -1 -p ack -e 40 -c 2 -a 0 -i 19 -k AGT
+ -t 1.132897825 -s 7 -d 2 -p ack -e 40 -c 2 -a 0 -i 19 -k RTR 
- -t 1.132897825 -s 7 -d 2 -p ack -e 40 -c 2 -a 0 -i 19 -k RTR
h -t 1.132897825 -s 7 -d 2 -p ack -e 40 -c 2 -a 0 -i 19 -k RTR
r -t 1.134803768 -s 2 -d 2 -p ack -e 40 -c 2 -a 0 -i 15 -k AGT
+ -t 1.134803768 -s 2 -d -1 -p tcp -e 1540 -c 2 -a 0 -i 20 -k AGT 
- -t 1.134803768 -s 2 -d -1 -p tcp -e 1540 -c 2 -a 0 -i 20 -k AGT
h -t 1.134803768 -s 2 -d -1 -p tcp -e 1540 -c 2 -a 0 -i 20 -k AGT
+ -t 1.134803768 -s 2 -d -1 -p tcp -e 1540 -c 2 -a 0 -i 21 -k AGT 
- -t 1.134803768 -s 2 -d -1 -p tcp -e 1540 -c 2 -a 0 -i 21 -k AGT
h -t 1.134803768 -s 2 -d -1 -p tcp -e 1540 -c 2 -a 0 -i 21 -k AGT
+ -t 1.134803768 -s 2 -d 7 -p tcp -e 1540 -c 2 -a 0 -i 20 -k RTR 
- -t 1.134803768 -s 2 -d 7 -p tcp -e 1540 -c 2 -a 0 -i 20 -k RTR
h -t 1.134803768 -s 2 -d 7 -p tcp -e 1540 -c 2 -a 0 -i 20 -k RTR
+ -t 1.134803768 -s 2 -d 7 -p tcp -e 1540 -c 2 -a 0 -i 21 -k RTR 
- -t 1.134803768 -s 2 -d 7 -p tcp -e 1540 -c 2 -a 0 -i 21 -k RTR
h -t 1.134803768 -s 2 -d 7 -p tcp -e 1540 -c 2 -a 0 -i 21 -k RTR
d -t 1.136660680 -s 4 -d 5 -p tcp -e 40 -c 2 -a 0 -i 4 -k RTR
+ -t 1.136660680 -s 4 -d 0 -p AODV -e 48 -c 2 -a 0 -i 0 -k RTR 
- -t 1.136660680 -s 4 -d 0 -p AODV -e 48 -c 2 -a 0 -i 0 -k RTR
h -t 1.136660680 -s 4 -d 0 -p AODV -e 48 -c 2 -a 0 -i 0 -k RTR
r -t 1.137848804 -s 1 -d 0 -p AODV -e 48 -c 2 -a 0 -i 0 -k RTR
r -t 1.148729712 -s 7 -d 7 -p tcp -e 1540 -c 2 -a 0 -i 13 -k AGT
+ -t 1.148729712 -s 7 -d -1 -p ack -e 40 -c 2 -a 0 -i 22 -k AGT 
- -t 1.148729712 -s 7 -d -1 -p ack -e 40 -c 2 -a 0 -i 22 -k AGT
h -t 1.148729712 -s 7 -d -1 -p ack -e 40 -c 2 -a 0 -i 22 -k AGT
+ -t 1.148729712 -s 7 -d 2 -p ack -e 40 -c 2 -a 0 -i 22 -k RTR 
- -t 1.148729712 -s 7 -d 2 -p ack -e 40 -c 2 -a 0 -i 22 -k RTR
h -t 1.148729712 -s 7 -d 2 -p ack -e 40 -c 2 -a 0 -i 22 -k RTR
r -t 1.150595656 -s 2 -d 2 -p ack -e 40 -c 2 -a 0 -i 19 -k AGT
+ -t 1.150595656 -s 2 -d -1 -p tcp -e 1540 -c 2 -a 0 -i 23 -k AGT 
- -t 1.150595656 -s 2 -d -1 -p tcp -e 1540 -c 2 -a 0 -i 23 -k AGT
h -t 1.150595656 -s 2 -d -1 -p tcp -e 1540 -c 2 -a 0 -i 23 -k AGT
+ -t 1.150595656 -s 2 -d -1 -p tcp -e 1540 -c 2 -a 0 -i 24 -k AGT 
- -t 1.150595656 -s 2 -d -1 -p tcp -e 1540 -c 2 -a 0 -i 24 -k AGT
h -t 1.150595656 -s 2 -d -1 -p tcp -e 1540 -c 2 -a 0 -i 24 -k AGT
+ -t 1.150595656 -s 2 -d 7 -p tcp -e 1540 -c 2 -a 0 -i 23 -k RTR 
- -t 1.150595656 -s 2 -d 7 -p tcp -e 1540 -c 2 -a 0 -i 23 -k RTR
h -t 1.150595656 -s 2 -d 7 -p tcp -e 1540 -c 2 -a 0 -i 23 -k RTR
+ -t 1.150595656 -s 2 -d 7 -p tcp -e 1540 -c 2 -a 0 -i 24 -k RTR 
- -t 1.150595656 -s 2 -d 7 -p tcp -e 1540 -c 2 -a 0 -i 24 -k RTR
h -t 1.150595656 -s 2 -d 7 -p tcp -e 1540 -c 2 -a 0 -i 24 -k RTR
r -t 1.152422248 -s 2 -d 2 -p ack -e 40 -c 2 -a 0 -i 22 -k AGT
+ -t 1.152422248 -s 2 -d -1 -p tcp -e 1540 -c 2 -a 0 -i 25 -k AGT 
- -t 1.152422248 -s 2 -d -1 -p tcp -e 1540 -c 2 -a 0 -i 25 -k AGT
h -t 1.152422248 -s 2 -d -1 -p tcp -e 1540 -c 2 -a 0 -i 25 -k AGT
+ -t 1.152422248 -s 2 -d -1 -p tcp -e 1540 -c 2 -a 0 -i 26 -k AGT 
- -t 1.152422248 -s 2 -d -1 -p tcp -e 1540 -c 2 -a 0 -i 26 -k AGT
h -t 1.152422248 -s 2 -d -1 -p tcp -e 1540 -c 2 -a 0 -i 26 -k AGT
+ -t 1.152422248 -s 2 -d 7 -p tcp -e 1540 -c 2 -a 0 -i 25 -k RTR 
- -t 1.152422248 -s 2 -d 7 -p tcp -e 1540 -c 2 -a 0 -i 25 -k RTR
h -t 1.152422248 -s 2 -d 7 -p tcp -e 1540 -c 2 -a 0 -i 25 -k RTR
+ -t 1.152422248 -s 2 -d 7 -p tcp -e 1540 -c 2 -a 0 -i 26 -k RTR 
- -t 1.152422248 -s 2 -d 7 -p tcp -e 1540 -c 2 -a 0 -i 26 -k RTR
h -t 1.152422248 -s 2 -d 7 -p tcp -e 1540 -c 2 -a 0 -i 26 -k RTR
r -t 1.166308192 -s 7 -d 7 -p tcp -e 1540 -c 2 -a 0 -i 14 -k AGT
+ -t 1.166308192 -s 7 -d -1 -p ack -e 40 -c 2 -a 0 -i 27 -k AGT 
- -t 1.166308192 -s 7 -d -1 -p ack -e 40 -c 2 -a 0 -i 27 -k AGT
h -t 1.166308192 -s 7 -d -1 -p ack -e 40 -c 2 -a 0 -i 27 -k AGT
+ -t 1.166308192 -s 7 -d 2 -p ack -e 40 -c 2 -a 0 -i 27 -k RTR 
- -t 1.166308192 -s 7 -d 2 -p ack -e 40 -c 2 -a 0 -i 27 -k RTR
h -t 1.166308192 -s 7 -d 2 -p ack -e 40 -c 2 -a 0 -i 27 -k RTR
r -t 1.168614136 -s 2 -d 2 -p ack -e 40 -c 2 -a 0 -i 27 -k AGT
+ -t 1.168614136 -s 2 -d -1 -p tcp -e 1540 -c 2 -a 0 -i 28 -k AGT 
- -t 1.168614136 -s 2 -d -1 -p tcp -e 1540 -c 2 -a 0 -i 28 -k AGT
h -t 1.168614136 -s 2 -d -1 -p tcp -e 1540 -c 2 -a 0 -i 28 -k AGT
+ -t 1.168614136 -s 2 -d -1 -p tcp -e 1540 -c 2 -a 0 -i 29 -k AGT 
- -t 1.168614136 -s 2 -d -1 -p tcp -e 1540 -c 2 -a 0 -i 29 -k AGT
h -t 1.168614136 -s 2 -d -1 -p tcp -e 1540 -c 2 -a 0 -i 29 -k AGT
+ -t 1.168614136 -s 2 -d 7 -p tcp -e 1540 -c 2 -a 0 -i 28 -k RTR 
- -t 1.168614136 -s 2 -d 7 -p tcp -e 1540 -c 2 -a 0 -i 28 -k RTR
h -t 1.168614136 -s 2 -d 7 -p tcp -e 1540 -c 2 -a 0 -i 28 -k RTR
+ -t 1.168614136 -s 2 -d 7 -p tcp -e 1540 -c 2 -a 0 -i 29 -k RTR 
- -t 1.168614136 -s 2 -d 7 -p tcp -e 1540 -c 2 -a 0 -i 29 -k RTR
h -t 1.168614136 -s 2 -d 7 -p tcp -e 1540 -c 2 -a 0 -i 29 -k RTR
r -t 1.182520080 -s 7 -d 7 -p tcp -e 1540 -c 2 -a 0 -i 20 -k AGT
+ -t 1.182520080 -s 7 -d -1 -p ack -e 40 -c 2 -a 0 -i 30 -k AGT 
- -t 1.182520080 -s 7 -d -1 -p ack -e 40 -c 2 -a 0 -i 30 -k AGT
h -t 1.182520080 -s 7 -d -1 -p ack -e 40 -c 2 -a 0 -i 30 -k AGT
+ -t 1.182520080 -s 7 -d 2 -p ack -e 40 -c 2 -a 0 -i 30 -k RTR 
- -t 1.182520080 -s 7 -d 2 -p ack -e 40 -c 2 -a 0 -i 30 -k RTR
h -t 1.182520080 -s 7 -d 2 -p ack -e 40 -c 2 -a 0 -i 30 -k RTR
r -t 1.184791639 -s 0 -d 0 -p ack -e 40 -c 2 -a 0 -i 10 -k AGT
+ -t 1.184791639 -s 0 -d -1 -p tcp -e 1540 -c 2 -a 0 -i 31 -k AGT 
- -t 1.184791639 -s 0 -d -1 -p tcp -e 1540 -c 2 -a 0 -i 31 -k AGT
h -t 1.184791639 -s 0 -d -1 -p tcp -e 1540 -c 2 -a 0 -i 31 -k AGT
+ -t 1.184791639 -s 0 -d -1 -p tcp -e 1540 -c 2 -a 0 -i 32 -k AGT 
- -t 1.184791639 -s 0 -d -1 -p tcp -e 1540 -c 2 -a 0 -i 32 -k AGT
h -t 1.184791639 -s 0 -d -1 -p tcp -e 1540 -c 2 -a 0 -i 32 -k AGT
+ -t 1.184791639 -s 0 -d 3 -p tcp -e 1540 -c 2 -a 0 -i 31 -k RTR 
- -t 1.184791639 -s 0 -d 3 -p tcp -e 1540 -c 2 -a 0 -i 31 -k RTR
h -t 1.184791639 -s 0 -d 3 -p tcp -e 1540 -c 2 -a 0 -i 31 -k RTR
+ -t 1.184791639 -s 0 -d 3 -p tcp -e 1540 -c 2 -a 0 -i 32 -k RTR 
- -t 1.184791639 -s 0 -d 3 -p tcp -e 1540 -c 2 -a 0 -i 32 -k RTR
h -t 1.184791639 -s 0 -d 3 -p tcp -e 1540 -c 2 -a 0 -i 32 -k RTR
+ -t 1.198837437 -s 3 -d 9 -p tcp -e 1540 -c 2 -a 0 -i 31 -k RTR 
- -t 1.198837437 -s 3 -d 9 -p tcp -e 1540 -c 2 -a 0 -i 31 -k RTR
h -t 1.198837437 -s 3 -d 9 -p tcp -e 1540 -c 2 -a 0 -i 31 -k RTR
+ -t 1.212803834 -s 3 -d 9 -p tcp -e 1540 -c 2 -a 0 -i 32 -k RTR 
- -t 1.212803834 -s 3 -d 9 -p tcp -e 1540 -c 2 -a 0 -i 32 -k RTR
h -t 1.212803834 -s 3 -d 9 -p tcp -e 1540 -c 2 -a 0 -i 32 -k RTR
+ -t 1.226809687 -s 9 -d 6 -p tcp -e 1540 -c 2 -a 0 -i 17 -k RTR 
- -t 1.226809687 -s 9 -d 6 -p tcp -e 1540 -c 2 -a 0 -i 17 -k RTR
h -t 1.226809687 -s 9 -d 6 -p tcp -e 1540 -c 2 -a 0 -i 17 -k RTR
+ -t 1.240736159 -s 9 -d 6 -p tcp -e 1540 -c 2 -a 0 -i 18 -k RTR 
- -t 1.240736159 -s 9 -d 6 -p tcp -e 1540 -c 2 -a 0 -i 18 -k RTR
h -t 1.240736159 -s 9 -d 6 -p tcp -e 1540 -c 2 -a 0 -i 18 -k RTR
r -t 1.254712716 -s 7 -d 7 -p tcp -e 1540 -c 2 -a 0 -i 21 -k AGT
+ -t 1.254712716 -s 7 -d -1 -p ack -e 40 -c 2 -a 0 -i 33 -k AGT 
- -t 1.254712716 -s 7 -d -1 -p ack -e 40 -c 2 -a 0 -i 33 -k AGT
h -t 1.254712716 -s 7 -d -1 -p ack -e 40 -c 2 -a 0 -i 33 -k AGT
+ -t 1.254712716 -s 7 -d 2 -p ack -e 40 -c 2 -a 0 -i 33 -k RTR 
- -t 1.254712716 -s 7 -d 2 -p ack -e 40 -c 2 -a 0 -i 33 -k RTR
h -t 1.254712716 -s 7 -d 2 -p ack -e 40 -c 2 -a 0 -i 33 -k RTR
r -t 1.268539309 -s 7 -d 7 -p tcp -e 1540 -c 2 -a 0 -i 23 -k AGT
+ -t 1.268539309 -s 7 -d -1 -p ack -e 40 -c 2 -a 0 -i 34 -k AGT 
- -t 1.268539309 -s 7 -d -1 -p ack -e 40 -c 2 -a 0 -i 34 -k AGT
h -t 1.268539309 -s 7 -d -1 -p ack -e 40 -c 2 -a 0 -i 34 -k AGT
+ -t 1.268539309 -s 7 -d 2 -p ack -e 40 -c 2 -a 0 -i 34 -k RTR 
- -t 1.268539309 -s 7 -d 2 -p ack -e 40 -c 2 -a 0 -i 34 -k RTR
h -t 1.268539309 -s 7 -d 2 -p ack -e 40 -c 2 -a 0 -i 34 -k RTR
r -t 1.270425254 -s 2 -d 2 -p ack -e 40 -c 2 -a 0 -i 30 -k AGT
+ -t 1.270425254 -s 2 -d -1 -p tcp -e 1540 -c 2 -a 0 -i 35 -k AGT 
- -t 1.270425254 -s 2 -d -1 -p tcp -e 1540 -c 2 -a 0 -i 35 -k AGT
h -t 1.270425254 -s 2 -d -1 -p tcp -e 1540 -c 2 -a 0 -i 35 -k AGT
+ -t 1.270425254 -s 2 -d -1 -p tcp -e 1540 -c 2 -a 0 -i 36 -k AGT 
- -t 1.270425254 -s 2 -d -1 -p tcp -e 1540 -c 2 -a 0 -i 36 -k AGT
h -t 1.270425254 -s 2 -d -1 -p tcp -e 1540 -c 2 -a 0 -i 36 -k AGT
+ -t 1.270425254 -s 2 -d 7 -p tcp -e 1540 -c 2 -a 0 -i 35 -k RTR 
- -t 1.270425254 -s 2 -d 7 -p tcp -e 1540 -c 2 -a 0 -i 35 -k RTR
h -t 1.270425254 -s 2 -d 7 -p tcp -e 1540 -c 2 -a 0 -i 35 -k RTR
+ -t 1.270425254 -s 2 -d 7 -p tcp -e 1540 -c 2 -a 0 -i 36 -k RTR 
- -t 1.270425254 -s 2 -d 7 -p tcp -e 1540 -c 2 -a 0 -i 36 -k RTR
h -t 1.270425254 -s 2 -d 7 -p tcp -e 1540 -c 2 -a 0 -i 36 -k RTR
r -t 1.284571199 -s 7 -d 7 -p tcp -e 1540 -c 2 -a 0 -i 24 -k AGT
+ -t 1.284571199 -s 7 -d -1 -p ack -e 40 -c 2 -a 0 -i 37 -k AGT 
- -t 1.284571199 -s 7 -d -1 -p ack -e 40 -c 2 -a 0 -i 37 -k AGT
h -t 1.284571199 -s 7 -d -1 -p ack -e 40 -c 2 -a 0 -i 37 -k AGT
+ -t 1.284571199 -s 7 -d 2 -p ack -e 40 -c 2 -a 0 -i 37 -k RTR 
- -t 1.284571199 -s 7 -d 2 -p ack -e 40 -c 2 -a 0 -i 37 -k RTR
h -t 1.284571199 -s 7 -d 2 -p ack -e 40 -c 2 -a 0 -i 37 -k RTR
r -t 1.286577144 -s 2 -d 2 -p ack -e 40 -c 2 -a 0 -i 33 -k AGT
+ -t 1.286577144 -s 2 -d -1 -p tcp -e 1540 -c 2 -a 0 -i 38 -k AGT 
- -t 1.286577144 -s 2 -d -1 -p tcp -e 1540 -c 2 -a 0 -i 38 -k AGT
h -t 1.286577144 -s 2 -d -1 -p tcp -e 1540 -c 2 -a 0 -i 38 -k AGT
+ -t 1.286577144 -s 2 -d -1 -p tcp -e 1540 -c 2 -a 0 -i 39 -k AGT 
- -t 1.286577144 -s 2 -d -1 -p tcp -e 1540 -c 2 -a 0 -i 39 -k AGT
h -t 1.286577144 -s 2 -d -1 -p tcp -e 1540 -c 2 -a 0 -i 39 -k AGT