r 1.111241729 _7_ AGT  --- 11 tcp 1540 [13a 7 2 800] ------- [2:0 7:0 30 7] [3 0] 1 0
s 1.111241729 _7_ AGT  --- 15 ack 40 [0 0 0 0] ------- [7:0 2:0 32 0] [3 0] 0 0
r 1.111241729 _7_ RTR  --- 15 ack 40 [0 0 0 0] ------- [7:0 2:0 32 0] [3 0] 0 0
s 1.111241729 _7_ RTR  --- 15 ack 40 [0 0 0 0] ------- [7:0 2:0 30 2] [3 0] 0 0
r 1.114334915 _6_ AGT  --- 3 tcp 40 [13a 6 9 800] ------- [3:0 6:0 29 6] [0 0] 2 0
s 1.114334915 _6_ AGT  --- 16 ack 40 [0 0 0 0] ------- [6:0 3:0 32 0] [0 0] 0 0
r 1.114334915 _6_ RTR  --- 16 ack 40 [0 0 0 0] ------- [6:0 3:0 32 0] [0 0] 0 0
s 1.114334915 _6_ RTR  --- 16 ack 40 [0 0 0 0] ------- [6:0 3:0 30 9] [0 0] 0 0
r 1.116540804 _9_ RTR  --- 16 ack 40 [13a 9 6 800] ------- [6:0 3:0 30 9] [0 0] 1 0
f 1.116540804 _9_ RTR  --- 16 ack 40 [13a 9 6 800] ------- [6:0 3:0 29 3] [0 0] 1 0
r 1.118486651 _3_ AGT  --- 16 ack 40 [13a 3 9 800] ------- [6:0 3:0 29 3] [0 0] 2 0
s 1.118486651 _3_ AGT  --- 17 tcp 1540 [0 0 0 0] ------- [3:0 6:0 32 0] [1 0] 0 0
r 1.118486651 _3_ RTR  --- 17 tcp 1540 [0 0 0 0] ------- [3:0 6:0 32 0] [1 0] 0 0
s 1.118486651 _3_ AGT  --- 18 tcp 1540 [0 0 0 0] ------- [3:0 6:0 32 0] [2 0] 0 0
r 1.118486651 _3_ RTR  --- 18 tcp 1540 [0 0 0 0] ------- [3:0 6:0 32 0] [2 0] 0 0
s 1.118486651 _3_ RTR  --- 17 tcp 1540 [0 0 0 0] ------- [3:0 6:0 30 9] [1 0] 0 0
s 1.118486651 _3_ RTR  --- 18 tcp 1540 [0 0 0 0] ------- [3:0 6:0 30 9] [2 0] 0 0
r 1.132897825 _7_ AGT  --- 12 tcp 1540 [13a 7 2 800] ------- [2:0 7:0 30 7] [4 0] 1 0
s 1.132897825 _7_ AGT  --- 19 ack 40 [0 0 0 0] ------- [7:0 2:0 32 0] [4 0] 0 0
r 1.132897825 _7_ RTR  --- 19 ack 40 [0 0 0 0] ------- [7:0 2:0 32 0] [4 0] 0 0
s 1.132897825 _7_ RTR  --- 19 ack 40 [0 0 0 0] ------- [7:0 2:0 30 2] [4 0] 0 0
r 1.134803768 _2_ AGT  --- 15 ack 40 [13a 2 7 800] ------- [7:0 2:0 30 2] [3 0] 1 0
s 1.134803768 _2_ AGT  --- 20 tcp 1540 [0 0 0 0] ------- [2:0 7:0 32 0] [7 0] 0 0
r 1.134803768 _2_ RTR  --- 20 tcp 1540 [0 0 0 0] ------- [2:0 7:0 32 0] [7 0] 0 0
s 1.134803768 _2_ AGT  --- 21 tcp 1540 [0 0 0 0] ------- [2:0 7:0 32 0] [8 0] 0 0
r 1.134803768 _2_ RTR  --- 21 tcp 1540 [0 0 0 0] ------- [2:0 7:0 32 0] [8 0] 0 0
s 1.134803768 _2_ RTR  --- 20 tcp 1540 [0 0 0 0] ------- [2:0 7:0 30 7] [7 0] 0 0
s 1.134803768 _2_ RTR  --- 21 tcp 1540 [0 0 0 0] ------- [2:0 7:0 30 7] [8 0] 0 0
D 1.136660680 _4_ RTR  CBK 4 tcp 40 [13a 5 4 800] ------- [4:0 5:0 30 5] [0 0] 0 0
s 1.136660680 _4_ RTR  --- 0 AODV 48 [0 0 0 0] ------- [4:255 -1:255 1 0] [0x8 3 [3 0] 0.000000] (ERROR)
r 1.137848804 _1_ RTR  --- 0 AODV 48 [0 ffffffff 4 800] ------- [4:255 -1:255 1 0] [0x8 3 [3 0] 0.000000] (ERROR)
r 1.148729712 _7_ AGT  --- 13 tcp 1540 [13a 7 2 800] ------- [2:0 7:0 30 7] [5 0] 1 0
s 1.148729712 _7_ AGT  --- 22 ack 40 [0 0 0 0] ------- [7:0 2:0 32 0] [5 0] 0 0
r 1.148729712 _7_ RTR  --- 22 ack 40 [0 0 0 0] ------- [7:0 2:0 32 0] [5 0] 0 0
s 1.148729712 _7_ RTR  --- 22 ack 40 [0 0 0 0] ------- [7:0 2:0 30 2] [5 0] 0 0
r 1.150595656 _2_ AGT  --- 19 ack 40 [13a 2 7 800] ------- [7:0 2:0 30 2] [4 0] 1 0
s 1.150595656 _2_ AGT  --- 23 tcp 1540 [0 0 0 0] ------- [2:0 7:0 32 0] [9 0] 0 0
r 1.150595656 _2_ RTR  --- 23 tcp 1540 [0 0 0 0] ------- [2:0 7:0 32 0] [9 0] 0 0
s 1.150595656 _2_ AGT  --- 24 tcp 1540 [0 0 0 0] ------- [2:0 7:0 32 0] [10 0] 0 0
r 1.150595656 _2_ RTR  --- 24 tcp 1540 [0 0 0 0] ------- [2:0 7:0 32 0] [10 0] 0 0
s 1.150595656 _2_ RTR  --- 23 tcp 1540 [0 0 0 0] ------- [2:0 7:0 30 7] [9 0] 0 0
s 1.150595656 _2_ RTR  --- 24 tcp 1540 [0 0 0 0] ------- [2:0 7:0 30 7] [10 0] 0 0
r 1.152422248 _2_ AGT  --- 22 ack 40 [13a 2 7 800] ------- [7:0 2:0 30 2] [5 0] 1 0
s 1.152422248 _2_ AGT  --- 25 tcp 1540 [0 0 0 0] ------- [2:0 7:0 32 0] [11 0] 0 0
r 1.152422248 _2_ RTR  --- 25 tcp 1540 [0 0 0 0] ------- [2:0 7:0 32 0] [11 0] 0 0
s 1.152422248 _2_ AGT  --- 26 tcp 1540 [0 0 0 0] ------- [2:0 7:0 32 0] [12 0] 0 0
r 1.152422248 _2_ RTR  --- 26 tcp 1540 [0 0 0 0] ------- [2:0 7:0 32 0] [12 0] 0 0
s 1.152422248 _2_ RTR  --- 25 tcp 1540 [0 0 0 0] ------- [2:0 7:0 30 7] [11 0] 0 0
s 1.152422248 _2_ RTR  --- 26 tcp 1540 [0 0 0 0] ------- [2:0 7:0 30 7] [12 0] 0 0
r 1.166308192 _7_ AGT  --- 14 tcp 1540 [13a 7 2 800] ------- [2:0 7:0 30 7] [6 0] 1 0
s 1.166308192 _7_ AGT  --- 27 ack 40 [0 0 0 0] ------- [7:0 2:0 32 0] [6 0] 0 0
r 1.166308192 _7_ RTR  --- 27 ack 40 [0 0 0 0] ------- [7:0 2:0 32 0] [6 0] 0 0
s 1.166308192 _7_ RTR  --- 27 ack 40 [0 0 0 0] ------- [7:0 2:0 30 2] [6 0] 0 0
r 1.168614136 _2_ AGT  --- 27 ack 40 [13a 2 7 800] ------- [7:0 2:0 30 2] [6 0] 1 0
s 1.168614136 _2_ AGT  --- 28 tcp 1540 [0 0 0 0] ------- [2:0 7:0 32 0] [13 0] 0 0
r 1.168614136 _2_ RTR  --- 28 tcp 1540 [0 0 0 0] ------- [2:0 7:0 32 0] [13 0] 0 0
s 1.168614136 _2_ AGT  --- 29 tcp 1540 [0 0 0 0] ------- [2:0 7:0 32 0] [14 0] 0 0
r 1.168614136 _2_ RTR  --- 29 tcp 1540 [0 0 0 0] ------- [2:0 7:0 32 0] [14 0] 0 0
s 1.168614136 _2_ RTR  --- 28 tcp 1540 [0 0 0 0] ------- [2:0 7:0 30 7] [13 0] 0 0
s 1.168614136 _2_ RTR  --- 29 tcp 1540 [0 0 0 0] ------- [2:0 7:0 30 7] [14 0] 0 0
r 1.182520080 _7_ AGT  --- 20 tcp 1540 [13a 7 2 800] ------- [2:0 7:0 30 7] [7 0] 1 0
s 1.182520080 _7_ AGT  --- 30 ack 40 [0 0 0 0] ------- [7:0 2:0 32 0] [7 0] 0 0
r 1.182520080 _7_ RTR  --- 30 ack 40 [0 0 0 0] ------- [7:0 2:0 32 0] [7 0] 0 0
s 1.182520080 _7_ RTR  --- 30 ack 40 [0 0 0 0] ------- [7:0 2:0 30 2] [7 0] 0 0
r 1.184791639 _0_ AGT  --- 10 ack 40 [13a 0 3 800] ------- [9:0 0:0 29 0] [0 0] 2 0
s 1.184791639 _0_ AGT  --- 31 tcp 1540 [0 0 0 0] ------- [0:0 9:0 32 0] [1 0] 0 0
r 1.184791639 _0_ RTR  --- 31 tcp 1540 [0 0 0 0] ------- [0:0 9:0 32 0] [1 0] 0 0
s 1.184791639 _0_ AGT  --- 32 tcp 1540 [0 0 0 0] ------- [0:0 9:0 32 0] [2 0] 0 0
r 1.184791639 _0_ RTR  --- 32 tcp 1540 [0 0 0 0] ------- [0:0 9:0 32 0] [2 0] 0 0
s 1.184791639 _0_ RTR  --- 31 tcp 1540 [0 0 0 0] ------- [0:0 9:0 30 3] [1 0] 0 0
s 1.184791639 _0_ RTR  --- 32 tcp 1540 [0 0 0 0] ------- [0:0 9:0 30 3] [2 0] 0 0
r 1.198837437 _3_ RTR  --- 31 tcp 1540 [13a 3 0 800] ------- [0:0 9:0 30 3] [1 0] 1 0
f 1.198837437 _3_ RTR  --- 31 tcp 1540 [13a 3 0 800] ------- [0:0 9:0 29 9] [1 0] 1 0
r 1.212803834 _3_ RTR  --- 32 tcp 1540 [13a 3 0 800] ------- [0:0 9:0 30 3] [2 0] 1 0
f 1.212803834 _3_ RTR  --- 32 tcp 1540 [13a 3 0 800] ------- [0:0 9:0 29 9] [2 0] 1 0
r 1.226809687 _9_ RTR  --- 17 tcp 1540 [13a 9 3 800] ------- [3:0 6:0 30 9] [1 0] 1 0
f 1.226809687 _9_ RTR  --- 17 tcp 1540 [13a 9 3 800] ------- [3:0 6:0 29 6] [1 0] 1 0
r 1.240736159 _9_ RTR  --- 18 tcp 1540 [13a 9 3 800] ------- [3:0 6:0 30 9] [2 0] 1 0
f 1.240736159 _9_ RTR  --- 18 tcp 1540 [13a 9 3 800] ------- [3:0 6:0 29 6] [2 0] 1 0
r 1.254712716 _7_ AGT  --- 21 tcp 1540 [13a 7 2 800] ------- [2:0 7:0 30 7] [8 0] 1 0
s 1.254712716 _7_ AGT  --- 33 ack 40 [0 0 0 0] ------- [7:0 2:0 32 0] [8 0] 0 0
r 1.254712716 _7_ RTR  --- 33 ack 40 [0 0 0 0] ------- [7:0 2:0 32 0] [8 0] 0 0
s 1.254712716 _7_ RTR  --- 33 ack 40 [0 0 0 0] ------- [7:0 2:0 30 2] [8 0] 0 0
r 1.268539309 _7_ AGT  --- 23 tcp 1540 [13a 7 2 800] ------- [2:0 7:0 30 7] [9 0] 1 0
s 1.268539309 _7_ AGT  --- 34 ack 40 [0 0 0 0] ------- [7:0 2:0 32 0] [9 0] 0 0
r 1.268539309 _7_ RTR  --- 34 ack 40 [0 0 0 0] ------- [7:0 2:0 32 0] [9 0] 0 0
s 1.268539309 _7_ RTR  --- 34 ack 40 [0 0 0 0] ------- [7:0 2:0 30 2] [9 0] 0 0
r 1.270425254 _2_ AGT  --- 30 ack 40 [13a 2 7 800] ------- [7:0 2:0 30 2] [7 0] 1 0
s 1.270425254 _2_ AGT  --- 35 tcp 1540 [0 0 0 0] ------- [2:0 7:0 32 0] [15 0] 0 0
r 1.270425254 _2_ RTR  --- 35 tcp 1540 [0 0 0 0] ------- [2:0 7:0 32 0] [15 0] 0 0
s 1.270425254 _2_ AGT  --- 36 tcp 1540 [0 0 0 0] ------- [2:0 7:0 32 0] [16 0] 0 0
r 1.270425254 _2_ RTR  --- 36 tcp 1540 [0 0 0 0] ------- [2:0 7:0 32 0] [16 0] 0 0
s 1.270425254 _2_ RTR  --- 35 tcp 1540 [0 0 0 0] ------- [2:0 7:0 30 7] [15 0] 0 0
s 1.270425254 _2_ RTR  --- 36 tcp 1540 [0 0 0 0] ------- [2:0 7:0 30 7] [16 0] 0 0
r 1.284571199 _7_ AGT  --- 24 tcp 1540 [13a 7 2 800] ------- [2:0 7:0 30 7] [10 0] 1 0
s 1.284571199 _7_ AGT  --- 37 ack 40 [0 0 0 0] ------- [7:0 2:0 32 0] [10 0] 0 0
r 1.284571199 _7_ RTR  --- 37 ack 40 [0 0 0 0] ------- [7:0 2:0 32 0] [10 0] 0 0
s 1.284571199 _7_ RTR  --- 37 ack 40 [0 0 0 0] ------- [7:0 2:0 30 2] [10 0] 0 0
r 1.286577144 _2_ AGT  --- 33 ack 40 [13a 2 7 800] ------- [7:0 2:0 30 2] [8 0] 1 0
s 1.286577144 _2_ AGT  --- 38 tcp 1540 [0 0 0 0] ------- [2:0 7:0 32 0] [17 0] 0 0
r 1.286577144 _2_ RTR  --- 38 tcp 1540 [0 0 0 0] ------- [2:0 7:0 32 0] [17 0] 0 0
s 1.286577144 _2_ AGT  --- 39 tcp 1540 [0 0 0 0] ------- [2:0 7:0 32 0] [18 0] 0 0
r 1.286577144 _2_ RTR  --- 39 tcp 1540 [0 0 0 0] ------- [2:0 7:0 32 0] [18 0] 0 0
s 1.286577144 _2_ RTR  --- 38 tcp 1540 [0 0 0 0] ------- [2:0 7:0 30 7] [17 0] 0 0
s 1.286577144 _2_ RTR  --- 39 tcp 1540 [0 0 0 0] ------- [2:0 7:0 30 7] [18 0] 0 0
r 1.288403738 _2_ AGT  --- 34 ack 40 [13a 2 7 800] ------- [7:0 2:0 30 2] [9 0] 1 0
s 1.288403738 _2_ AGT  --- 40 tcp 1540 [0 0 0 0] ------- [2:0 7:0 32 0] [19 0] 0 0
r 1.288403738 _2_ RTR  --- 40 tcp 1540 [0 0 0 0] ------- [2:0 7:0 32 0] [19 0] 0 0
s 1.288403738 _2_ AGT  --- 41 tcp 1540 [0 0 0 0] ------- [2:0 7:0 32 0] [20 0] 0 0
r 1.288403738 _2_ RTR  --- 41 tcp 1540 [0 0 0 0] ------- [2:0 7:0 32 0] [20 0] 0 0
s 1.288403738 _2_ RTR  --- 40 tcp 1540 [0 0 0 0] ------- [2:0 7:0 30 7] [19 0] 0 0
s 1.288403738 _2_ RTR  --- 41 tcp 1540 [0 0 0 0] ------- [2:0 7:0 30 7] [20 0] 0 0
r 1.302289683 _7_ AGT  --- 25 tcp 1540 [13a 7 2 800] ------- [2:0 7:0 30 7] [11 0] 1 0
s 1.302289683 _7_ AGT  --- 42 ack 40 [0 0 0 0] ------- [7:0 2:0 32 0] [11 0] 0 0
r 1.302289683 _7_ RTR  --- 42 ack 40 [0 0 0 0] ------- [7:0 2:0 32 0] [11 0] 0 0
s 1.302289683 _7_ RTR  --- 42 ack 40 [0 0 0 0] ------- [7:0 2:0 30 2] [11 0] 0 0
r 1.304175628 _2_ AGT  --- 37 ack 40 [13a 2 7 800] ------- [7:0 2:0 30 2] [10 0] 1 0
s 1.304175628 _2_ AGT  --- 43 tcp 1540 [0 0 0 0] ------- [2:0 7:0 32 0] [21 0] 0 0
r 1.304175628 _2_ RTR  --- 43 tcp 1540 [0 0 0 0] ------- [2:0 7:0 32 0] [21 0] 0 0
s 1.304175628 _2_ AGT  --- 44 tcp 1540 [0 0 0 0] ------- [2:0 7:0 32 0] [22 0] 0 0
r 1.304175628 _2_ RTR  --- 44 tcp 1540 [0 0 0 0] ------- [2:0 7:0 32 0] [22 0] 0 0
s 1.304175628 _2_ RTR  --- 43 tcp 1540 [0 0 0 0] ------- [2:0 7:0 30 7] [21 0] 0 0
s 1.304175628 _2_ RTR  --- 44 tcp 1540 [0 0 0 0] ------- [2:0 7:0 30 7] [22 0] 0 0
r 1.318072105 _6_ AGT  --- 17 tcp 1540 [13a 6 9 800] ------- [3:0 6:0 29 6] [1 0] 2 0
s 1.318072105 _6_ AGT  --- 45 ack 40 [0 0 0 0] ------- [6:0 3:0 32 0] [1 0] 0 0
r 1.318072105 _6_ RTR  --- 45 ack 40 [0 0 0 0] ------- [6:0 3:0 32 0] [1 0] 0 0
s 1.318072105 _6_ RTR  --- 45 ack 40 [0 0 0 0] ------- [6:0 3:0 30 9] [1 0] 0 0
r 1.332138577 _7_ AGT  --- 26 tcp 1540 [13a 7 2 800] ------- [2:0 7:0 30 7] [12 0] 1 0
s 1.332138577 _7_ AGT  --- 46 ack 40 [0 0 0 0] ------- [7:0 2:0 32 0] [12 0] 0 0
r 1.332138577 _7_ RTR  --- 46 ack 40 [0 0 0 0] ------- [7:0 2:0 32 0] [12 0] 0 0
s 1.332138577 _7_ RTR  --- 46 ack 40 [0 0 0 0] ------- [7:0 2:0 30 2] [12 0] 0 0
r 1.334064522 _2_ AGT  --- 42 ack 40 [13a 2 7 800] ------- [7:0 2:0 30 2] [11 0] 1 0
s 1.334064522 _2_ AGT  --- 47 tcp 1540 [0 0 0 0] ------- [2:0 7:0 32 0] [23 0] 0 0
r 1.334064522 _2_ RTR  --- 47 tcp 1540 [0 0 0 0] ------- [2:0 7:0 32 0] [23 0] 0 0
s 1.334064522 _2_ AGT  --- 48 tcp 1540 [0 0 0 0] ------- [2:0 7:0 32 0] [24 0] 0 0
r 1.334064522 _2_ RTR  --- 48 tcp 1540 [0 0 0 0] ------- [2:0 7:0 32 0] [24 0] 0 0
s 1.334064522 _2_ RTR  --- 47 tcp 1540 [0 0 0 0] ------- [2:0 7:0 30 7] [23 0] 0 0
s 1.334064522 _2_ RTR  --- 48 tcp 1540 [0 0 0 0] ------- [2:0 7:0 30 7] [24 0] 0 0
r 1.347930468 _7_ AGT  --- 28 tcp 1540 [13a 7 2 800] ------- [2:0 7:0 30 7] [13 0] 1 0
s 1.347930468 _7_ AGT  --- 49 ack 40 [0 0 0 0] ------- [7:0 2:0 32 0] [13 0] 0 0
r 1.347930468 _7_ RTR  --- 49 ack 40 [0 0 0 0] ------- [7:0 2:0 32 0] [13 0] 0 0
s 1.347930468 _7_ RTR  --- 49 ack 40 [0 0 0 0] ------- [7:0 2:0 30 2] [13 0] 0 0
r 1.362162089 _9_ AGT  --- 31 tcp 1540 [13a 9 3 800] ------- [0:0 9:0 29 9] [1 0] 2 0
s 1.362162089 _9_ AGT  --- 50 ack 40 [0 0 0 0] ------- [9:0 0:0 32 0] [1 0] 0 0
r 1.362162089 _9_ RTR  --- 50 ack 40 [0 0 0 0] ------- [9:0 0:0 32 0] [1 0] 0 0
s 1.362162089 _9_ RTR  --- 50 ack 40 [0 0 0 0] ------- [9:0 0:0 30 3] [1 0] 0 0
r 1.376028571 _9_ AGT  --- 32 tcp 1540 [13a 9 3 800] ------- [0:0 9:0 29 9] [2 0] 2 0
s 1.376028571 _9_ AGT  --- 51 ack 40 [0 0 0 0] ------- [9:0 0:0 32 0] [2 0] 0 0
r 1.376028571 _9_ RTR  --- 51 ack 40 [0 0 0 0] ------- [9:0 0:0 32 0] [2 0] 0 0
s 1.376028571 _9_ RTR  --- 51 ack 40 [0 0 0 0] ------- [9:0 0:0 30 3] [2 0] 0 0
r 1.390045128 _7_ AGT  --- 29 tcp 1540 [13a 7 2 800] ------- [2:0 7:0 30 7] [14 0] 1 0
s 1.390045128 _7_ AGT  --- 52 ack 40 [0 0 0 0] ------- [7:0 2:0 32 0] [14 0] 0 0
r 1.390045128 _7_ RTR  --- 52 ack 40 [0 0 0 0] ------- [7:0 2:0 32 0] [14 0] 0 0
s 1.390045128 _7_ RTR  --- 52 ack 40 [0 0 0 0] ------- [7:0 2:0 30 2] [14 0] 0 0
r 1.391971074 _2_ AGT  --- 46 ack 40 [13a 2 7 800] ------- [7:0 2:0 30 2] [12 0] 1 0
s 1.391971074 _2_ AGT  --- 53 tcp 1540 [0 0 0 0] ------- [2:0 7:0 32 0] [25 0] 0 0
r 1.391971074 _2_ RTR  --- 53 tcp 1540 [0 0 0 0] ------- [2:0 7:0 32 0] [25 0] 0 0
s 1.391971074 _2_ AGT  --- 54 tcp 1540 [0 0 0 0] ------- [2:0 7:0 32 0] [26 0] 0 0
r 1.391971074 _2_ RTR  --- 54 tcp 1540 [0 0 0 0] ------- [2:0 7:0 32 0] [26 0] 0 0
s 1.391971074 _2_ RTR  --- 53 tcp 1540 [0 0 0 0] ------- [2:0 7:0 30 7] [25 0] 0 0
s 1.391971074 _2_ RTR  --- 54 tcp 1540 [0 0 0 0] ------- [2:0 7:0 30 7] [26 0] 0 0
r 1.393797668 _2_ AGT  --- 49 ack 40 [13a 2 7 800] ------- [7:0 2:0 30 2] [13 0] 1 0
s 1.393797668 _2_ AGT  --- 55 tcp 1540 [0 0 0 0] ------- [2:0 7:0 32 0] [27 0] 0 0
r 1.393797668 _2_ RTR  --- 55 tcp 1540 [0 0 0 0] ------- [2:0 7:0 32 0] [27 0] 0 0
s 1.393797668 _2_ AGT  --- 56 tcp 1540 [0 0 0 0] ------- [2:0 7:0 32 0] [28 0] 0 0
r 1.393797668 _2_ RTR  --- 56 tcp 1540 [0 0 0 0] ------- [2:0 7:0 32 0] [28 0] 0 0
s 1.393797668 _2_ RTR  --- 55 tcp 1540 [0 0 0 0] ------- [2:0 7:0 30 7] [27 0] 0 0
s 1.393797668 _2_ RTR  --- 56 tcp 1540 [0 0 0 0] ------- [2:0 7:0 30 7] [28 0] 0 0
r 1.395704263 _2_ AGT  --- 52 ack 40 [13a 2 7 800] ------- [7:0 2:0 30 2] [14 0] 1 0
s 1.395704263 _2_ AGT  --- 57 tcp 1540 [0 0 0 0] ------- [2:0 7:0 32 0] [29 0] 0 0
r 1.395704263 _2_ RTR  --- 57 tcp 1540 [0 0 0 0] ------- [2:0 7:0 32 0] [29 0] 0 0
s 1.395704263 _2_ AGT  --- 58 tcp 1540 [0 0 0 0] ------- [2:0 7:0 32 0] [30 0] 0 0
r 1.395704263 _2_ RTR  --- 58 tcp 1540 [0 0 0 0] ------- [2:0 7:0 32 0] [30 0] 0 0
s 1.395704263 _2_ RTR  --- 57 tcp 1540 [0 0 0 0] ------- [2:0 7:0 30 7] [29 0] 0 0
s 1.395704263 _2_ RTR  --- 58 tcp 1540 [0 0 0 0] ------- [2:0 7:0 30 7] [30 0] 0 0
r 1.397640606 _9_ RTR  --- 45 ack 40 [13a 9 6 800] ------- [6:0 3:0 30 9] [1 0] 1 0
f 1.397640606 _9_ RTR  --- 45 ack 40 [13a 9 6 800] ------- [6:0 3:0 29 3] [1 0] 1 0
r 1.411486472 _6_ AGT  --- 18 tcp 1540 [13a 6 9 800] ------- [3:0 6:0 29 6] [2 0] 2 0
s 1.411486472 _6_ AGT  --- 59 ack 40 [0 0 0 0] ------- [6:0 3:0 32 0] [2 0] 0 0
r 1.411486472 _6_ RTR  --- 59 ack 40 [0 0 0 0] ------- [6:0 3:0 32 0] [2 0] 0 0
s 1.411486472 _6_ RTR  --- 59 ack 40 [0 0 0 0] ------- [6:0 3:0 30 9] [2 0] 0 0
r 1.425392943 _7_ AGT  --- 35 tcp 1540 [13a 7 2 800] ------- [2:0 7:0 30 7] [15 0] 1 0
s 1.425392943 _7_ AGT  --- 60 ack 40 [0 0 0 0] ------- [7:0 2:0 32 0] [15 0] 0 0
r 1.425392943 _7_ RTR  --- 60 ack 40 [0 0 0 0] ------- [7:0 2:0 32 0] [15 0] 0 0
s 1.425392943 _7_ RTR  --- 60 ack 40 [0 0 0 0] ------- [7:0 2:0 30 2] [15 0] 0 0
r 1.439539538 _7_ AGT  --- 36 tcp 1540 [13a 7 2 800] ------- [2:0 7:0 30 7] [16 0] 1 0
s 1.439539538 _7_ AGT  --- 61 ack 40 [0 0 0 0] ------- [7:0 2:0 32 0] [16 0] 0 0
r 1.439539538 _7_ RTR  --- 61 ack 40 [0 0 0 0] ------- [7:0 2:0 32 0] [16 0] 0 0
s 1.439539538 _7_ RTR  --- 61 ack 40 [0 0 0 0] ------- [7:0 2:0 30 2] [16 0] 0 0
r 1.441505484 _2_ AGT  --- 60 ack 40 [13a 2 7 800] ------- [7:0 2:0 30 2] [15 0] 1 0
s 1.441505484 _2_ AGT  --- 62 tcp 1540 [0 0 0 0] ------- [2:0 7:0 32 0] [31 0] 0 0
r 1.441505484 _2_ RTR  --- 62 tcp 1540 [0 0 0 0] ------- [2:0 7:0 32 0] [31 0] 0 0
s 1.441505484 _2_ AGT  --- 63 tcp 1540 [0 0 0 0] ------- [2:0 7:0 32 0] [32 0] 0 0
r 1.441505484 _2_ RTR  --- 63 tcp 1540 [0 0 0 0] ------- [2:0 7:0 32 0] [32 0] 0 0
s 1.441505484 _2_ RTR  --- 62 tcp 1540 [0 0 0 0] ------- [2:0 7:0 30 7] [31 0] 0 0
s 1.441505484 _2_ RTR  --- 63 tcp 1540 [0 0 0 0] ------- [2:0 7:0 30 7] [32 0] 0 0
r 1.443372079 _2_ AGT  --- 61 ack 40 [13a 2 7 800] ------- [7:0 2:0 30 2] [16 0] 1 0
s 1.443372079 _2_ AGT  --- 64 tcp 1540 [0 0 0 0] ------- [2:0 7:0 32 0] [33 0] 0 0
r 1.443372079 _2_ RTR  --- 64 tcp 1540 [0 0 0 0] ------- [2:0 7:0 32 0] [33 0] 0 0
s 1.443372079 _2_ AGT  --- 65 tcp 1540 [0 0 0 0] ------- [2:0 7:0 32 0] [34 0] 0 0
r 1.443372079 _2_ RTR  --- 65 tcp 1540 [0 0 0 0] ------- [2:0 7:0 32 0] [34 0] 0 0
s 1.443372079 _2_ RTR  --- 64 tcp 1540 [0 0 0 0] ------- [2:0 7:0 30 7] [33 0] 0 0
s 1.443372079 _2_ RTR  --- 65 tcp 1540 [0 0 0 0] ------- [2:0 7:0 30 7] [34 0] 0 0
r 1.445468418 _9_ RTR  --- 59 ack 40 [13a 9 6 800] ------- [6:0 3:0 30 9] [2 0] 1 0
f 1.445468418 _9_ RTR  --- 59 ack 40 [13a 9 6 800] ------- [6:0 3:0 29 3] [2 0] 1 0
r 1.447334283 _3_ RTR  --- 50 ack 40 [13a 3 9 800] ------- [9:0 0:0 30 3] [1 0] 1 0
f 1.447334283 _3_ RTR  --- 50 ack 40 [13a 3 9 800] ------- [9:0 0:0 29 0] [1 0] 1 0
s 1.448486651 _3_ AGT  --- 66 tcp 1540 [0 0 0 0] ------- [3:0 6:0 32 0] [1 0] 0 0
r 1.448486651 _3_ RTR  --- 66 tcp 1540 [0 0 0 0] ------- [3:0 6:0 32 0] [1 0] 0 0
s 1.448486651 _3_ RTR  --- 66 tcp 1540 [0 0 0 0] ------- [3:0 6:0 30 9] [1 0] 0 0
r 1.449240771 _3_ RTR  --- 51 ack 40 [13a 3 9 800] ------- [9:0 0:0 30 3] [2 0] 1 0
f 1.449240771 _3_ RTR  --- 51 ack 40 [13a 3 9 800] ------- [9:0 0:0 29 0] [2 0] 1 0
r 1.451286563 _0_ AGT  --- 50 ack 40 [13a 0 3 800] ------- [9:0 0:0 29 0] [1 0] 2 0
s 1.451286563 _0_ AGT  --- 67 tcp 1540 [0 0 0 0] ------- [0:0 9:0 32 0] [3 0] 0 0
r 1.451286563 _0_ RTR  --- 67 tcp 1540 [0 0 0 0] ------- [0:0 9:0 32 0] [3 0] 0 0
s 1.451286563 _0_ AGT  --- 68 tcp 1540 [0 0 0 0] ------- [0:0 9:0 32 0] [4 0] 0 0
r 1.451286563 _0_ RTR  --- 68 tcp 1540 [0 0 0 0] ------- [0:0 9:0 32 0] [4 0] 0 0
s 1.451286563 _0_ RTR  --- 67 tcp 1540 [0 0 0 0] ------- [0:0 9:0 30 3] [3 0] 0 0
s 1.451286563 _0_ RTR  --- 68 tcp 1540 [0 0 0 0] ------- [0:0 9:0 30 3] [4 0] 0 0
r 1.465112354 _3_ RTR  --- 67 tcp 1540 [13a 3 0 800] ------- [0:0 9:0 30 3] [3 0] 1 0
f 1.465112354 _3_ RTR  --- 67 tcp 1540 [13a 3 0 800] ------- [0:0 9:0 29 9] [3 0] 1 0
r 1.479258742 _3_ RTR  --- 68 tcp 1540 [13a 3 0 800] ------- [0:0 9:0 30 3] [4 0] 1 0
f 1.479258742 _3_ RTR  --- 68 tcp 1540 [13a 3 0 800] ------- [0:0 9:0 29 9] [4 0] 1 0
r 1.481254915 _3_ AGT  --- 45 ack 40 [13a 3 9 800] ------- [6:0 3:0 29 3] [1 0] 2 0
s 1.481254915 _3_ AGT  --- 69 tcp 1540 [0 0 0 0] ------- [3:0 6:0 32 0] [2 0] 0 0
r 1.481254915 _3_ RTR  --- 69 tcp 1540 [0 0 0 0] ------- [3:0 6:0 32 0] [2 0] 0 0
s 1.481254915 _3_ AGT  --- 70 tcp 1540 [0 0 0 0] ------- [3:0 6:0 32 0] [3 0] 0 0
r 1.481254915 _3_ RTR  --- 70 tcp 1540 [0 0 0 0] ------- [3:0 6:0 32 0] [3 0] 0 0
s 1.481254915 _3_ RTR  --- 69 tcp 1540 [0 0 0 0] ------- [3:0 6:0 30 9] [2 0] 0 0
s 1.481254915 _3_ RTR  --- 70 tcp 1540 [0 0 0 0] ------- [3:0 6:0 30 9] [3 0] 0 0
r 1.483141405 _3_ AGT  --- 59 ack 40 [13a 3 9 800] ------- [6:0 3:0 29 3] [2 0] 2 0
s 1.483141405 _3_ AGT  --- 71 tcp 1540 [0 0 0 0] ------- [3:0 6:0 32 0] [4 0] 0 0
r 1.483141405 _3_ RTR  --- 71 tcp 1540 [0 0 0 0] ------- [3:0 6:0 32 0] [4 0] 0 0
s 1.483141405 _3_ RTR  --- 71 tcp 1540 [0 0 0 0] ------- [3:0 6:0 30 9] [4 0] 0 0
r 1.496987273 _9_ RTR  --- 66 tcp 1540 [13a 9 3 800] ------- [3:0 6:0 30 9] [1 0] 1 0
f 1.496987273 _9_ RTR  --- 66 tcp 1540 [13a 9 3 800] ------- [3:0 6:0 29 6] [1 0] 1 0
r 1.510883829 _7_ AGT  --- 38 tcp 1540 [13a 7 2 800] ------- [2:0 7:0 30 7] [17 0] 1 0
s 1.510883829 _7_ AGT  --- 72 ack 40 [0 0 0 0] ------- [7:0 2:0 32 0] [17 0] 0 0
r 1.510883829 _7_ RTR  --- 72 ack 40 [0 0 0 0] ------- [7:0 2:0 32 0] [17 0] 0 0
s 1.510883829 _7_ RTR  --- 72 ack 40 [0 0 0 0] ------- [7:0 2:0 30 2] [17 0] 0 0
r 1.524830425 _7_ AGT  --- 39 tcp 1540 [13a 7 2 800] ------- [2:0 7:0 30 7] [18 0] 1 0
s 1.524830425 _7_ AGT  --- 73 ack 40 [0 0 0 0] ------- [7:0 2:0 32 0] [18 0] 0 0
r 1.524830425 _7_ RTR  --- 73 ack 40 [0 0 0 0] ------- [7:0 2:0 32 0] [18 0] 0 0
s 1.524830425 _7_ RTR  --- 73 ack 40 [0 0 0 0] ------- [7:0 2:0 30 2] [18 0] 0 0
r 1.526796373 _2_ AGT  --- 72 ack 40 [13a 2 7 800] ------- [7:0 2:0 30 2] [17 0] 1 0
s 1.526796373 _2_ AGT  --- 74 tcp 1540 [0 0 0 0] ------- [2:0 7:0 32 0] [35 0] 0 0
r 1.526796373 _2_ RTR  --- 74 tcp 1540 [0 0 0 0] ------- [2:0 7:0 32 0] [35 0] 0 0
s 1.526796373 _2_ AGT  --- 75 tcp 1540 [0 0 0 0] ------- [2:0 7:0 32 0] [36 0] 0 0
r 1.526796373 _2_ RTR  --- 75 tcp 1540 [0 0 0 0] ------- [2:0 7:0 32 0] [36 0] 0 0
s 1.526796373 _2_ RTR  --- 74 tcp 1540 [0 0 0 0] ------- [2:0 7:0 30 7] [35 0] 0 0
s 1.526796373 _2_ RTR  --- 75 tcp 1540 [0 0 0 0] ------- [2:0 7:0 30 7] [36 0] 0 0
r 1.528642969 _2_ AGT  --- 73 ack 40 [13a 2 7 800] ------- [7:0 2:0 30 2] [18 0] 1 0
s 1.528642969 _2_ AGT  --- 76 tcp 1540 [0 0 0 0] ------- [2:0 7:0 32 0] [37 0] 0 0
r 1.528642969 _2_ RTR  --- 76 tcp 1540 [0 0 0 0] ------- [2:0 7:0 32 0] [37 0] 0 0
s 1.528642969 _2_ AGT  --- 77 tcp 1540 [0 0 0 0] ------- [2:0 7:0 32 0] [38 0] 0 0
r 1.528642969 _2_ RTR  --- 77 tcp 1540 [0 0 0 0] ------- [2:0 7:0 32 0] [38 0] 0 0
s 1.528642969 _2_ RTR  --- 76 tcp 1540 [0 0 0 0] ------- [2:0 7:0 30 7] [37 0] 0 0
s 1.528642969 _2_ RTR  --- 77 tcp 1540 [0 0 0 0] ------- [2:0 7:0 30 7] [38 0] 0 0
r 1.542739426 _6_ AGT  --- 66 tcp 1540 [13a 6 9 800] ------- [3:0 6:0 29 6] [1 0] 2 0
s 1.542739426 _6_ AGT  --- 78 ack 40 [0 0 0 0] ------- [6:0 3:0 32 0] [2 0] 0 0
r 1.542739426 _6_ RTR  --- 78 ack 40 [0 0 0 0] ------- [6:0 3:0 32 0] [2 0] 0 0
s 1.542739426 _6_ RTR  --- 78 ack 40 [0 0 0 0] ------- [6:0 3:0 30 9] [2 0] 0 0
r 1.556605895 _7_ AGT  --- 40 tcp 1540 [13a 7 2 800] ------- [2:0 7:0 30 7] [19 0] 1 0
s 1.556605895 _7_ AGT  --- 79 ack 40 [0 0 0 0] ------- [7:0 2:0 32 0] [19 0] 0 0
r 1.556605895 _7_ RTR  --- 79 ack 40 [0 0 0 0] ------- [7:0 2:0 32 0] [19 0] 0 0
s 1.556605895 _7_ RTR  --- 79 ack 40 [0 0 0 0] ------- [7:0 2:0 30 2] [19 0] 0 0
r 1.570892491 _7_ AGT  --- 41 tcp 1540 [13a 7 2 800] ------- [2:0 7:0 30 7] [20 0] 1 0
s 1.570892491 _7_ AGT  --- 80 ack 40 [0 0 0 0] ------- [7:0 2:0 32 0] [20 0] 0 0
r 1.570892491 _7_ RTR  --- 80 ack 40 [0 0 0 0] ------- [7:0 2:0 32 0] [20 0] 0 0
s 1.570892491 _7_ RTR  --- 80 ack 40 [0 0 0 0] ------- [7:0 2:0 30 2] [20 0] 0 0
r 1.572818439 _2_ AGT  --- 79 ack 40 [13a 2 7 800] ------- [7:0 2:0 30 2] [19 0] 1 0
s 1.572818439 _2_ AGT  --- 81 tcp 1540 [0 0 0 0] ------- [2:0 7:0 32 0] [39 0] 0 0
r 1.572818439 _2_ RTR  --- 81 tcp 1540 [0 0 0 0] ------- [2:0 7:0 32 0] [39 0] 0 0
s 1.572818439 _2_ RTR  --- 81 tcp 1540 [0 0 0 0] ------- [2:0 7:0 30 7] [39 0] 0 0
r 1.574805036 _2_ AGT  --- 80 ack 40 [13a 2 7 800] ------- [7:0 2:0 30 2] [20 0] 1 0
s 1.574805036 _2_ AGT  --- 82 tcp 1540 [0 0 0 0] ------- [2:0 7:0 32 0] [40 0] 0 0
r 1.574805036 _2_ RTR  --- 82 tcp 1540 [0 0 0 0] ------- [2:0 7:0 32 0] [40 0] 0 0
s 1.574805036 _2_ RTR  --- 82 tcp 1540 [0 0 0 0] ------- [2:0 7:0 30 7] [40 0] 0 0
r 1.576701362 _9_ RTR  --- 78 ack 40 [13a 9 6 800] ------- [6:0 3:0 30 9] [2 0] 1 0
f 1.576701362 _9_ RTR  --- 78 ack 40 [13a 9 6 800] ------- [6:0 3:0 29 3] [2 0] 1 0
r 1.590547954 _7_ AGT  --- 43 tcp 1540 [13a 7 2 800] ------- [2:0 7:0 30 7] [21 0] 1 0
s 1.590547954 _7_ AGT  --- 83 ack 40 [0 0 0 0] ------- [7:0 2:0 32 0] [21 0] 0 0
r 1.590547954 _7_ RTR  --- 83 ack 40 [0 0 0 0] ------- [7:0 2:0 32 0] [21 0] 0 0
s 1.590547954 _7_ RTR  --- 83 ack 40 [0 0 0 0] ------- [7:0 2:0 30 2] [21 0] 0 0
r 1.592673901 _2_ AGT  --- 83 ack 40 [13a 2 7 800] ------- [7:0 2:0 30 2] [21 0] 1 0
s 1.592673901 _2_ AGT  --- 84 tcp 1540 [0 0 0 0] ------- [2:0 7:0 32 0] [41 0] 0 0
r 1.592673901 _2_ RTR  --- 84 tcp 1540 [0 0 0 0] ------- [2:0 7:0 32 0] [41 0] 0 0
s 1.592673901 _2_ RTR  --- 84 tcp 1540 [0 0 0 0] ------- [2:0 7:0 30 7] [41 0] 0 0
r 1.594630375 _3_ AGT  --- 78 ack 40 [13a 3 9 800] ------- [6:0 3:0 29 3] [2 0] 2 0
s 1.594630375 _3_ AGT  --- 85 tcp 1540 [0 0 0 0] ------- [3:0 6:0 32 0] [5 0] 0 0
r 1.594630375 _3_ RTR  --- 85 tcp 1540 [0 0 0 0] ------- [3:0 6:0 32 0] [5 0] 0 0
s 1.594630375 _3_ RTR  --- 85 tcp 1540 [0 0 0 0] ------- [3:0 6:0 30 9] [5 0] 0 0
r 1.596716163 _0_ AGT  --- 51 ack 40 [13a 0 3 800] ------- [9:0 0:0 29 0] [2 0] 2 0
s 1.596716163 _0_ AGT  --- 86 tcp 1540 [0 0 0 0] ------- [0:0 9:0 32 0] [5 0] 0 0
r 1.596716163 _0_ RTR  --- 86 tcp 1540 [0 0 0 0] ------- [0:0 9:0 32 0] [5 0] 0 0
s 1.596716163 _0_ AGT  --- 87 tcp 1540 [0 0 0 0] ------- [0:0 9:0 32 0] [6 0] 0 0
r 1.596716163 _0_ RTR  --- 87 tcp 1540 [0 0 0 0] ------- [0:0 9:0 32 0] [6 0] 0 0
s 1.596716163 _0_ RTR  --- 86 tcp 1540 [0 0 0 0] ------- [0:0 9:0 30 3] [5 0] 0 0
s 1.596716163 _0_ RTR  --- 87 tcp 1540 [0 0 0 0] ------- [0:0 9:0 30 3] [6 0] 0 0
r 1.610602633 _9_ AGT  --- 67 tcp 1540 [13a 9 3 800] ------- [0:0 9:0 29 9] [3 0] 2 0
s 1.610602633 _9_ AGT  --- 88 ack 40 [0 0 0 0] ------- [9:0 0:0 32 0] [3 0] 0 0
r 1.610602633 _9_ RTR  --- 88 ack 40 [0 0 0 0] ------- [9:0 0:0 32 0] [3 0] 0 0
s 1.610602633 _9_ RTR  --- 88 ack 40 [0 0 0 0] ------- [9:0 0:0 30 3] [3 0] 0 0
r 1.624579189 _7_ AGT  --- 44 tcp 1540 [13a 7 2 800] ------- [2:0 7:0 30 7] [22 0] 1 0
s 1.624579189 _7_ AGT  --- 89 ack 40 [0 0 0 0] ------- [7:0 2:0 32 0] [22 0] 0 0
r 1.624579189 _7_ RTR  --- 89 ack 40 [0 0 0 0] ------- [7:0 2:0 32 0] [22 0] 0 0
s 1.624579189 _7_ RTR  --- 89 ack 40 [0 0 0 0] ------- [7:0 2:0 30 2] [22 0] 0 0
r 1.638445786 _7_ AGT  --- 47 tcp 1540 [13a 7 2 800] ------- [2:0 7:0 30 7] [23 0] 1 0
s 1.638445786 _7_ AGT  --- 90 ack 40 [0 0 0 0] ------- [7:0 2:0 32 0] [23 0] 0 0
r 1.638445786 _7_ RTR  --- 90 ack 40 [0 0 0 0] ------- [7:0 2:0 32 0] [23 0] 0 0
s 1.638445786 _7_ RTR  --- 90 ack 40 [0 0 0 0] ------- [7:0 2:0 30 2] [23 0] 0 0
r 1.640511734 _2_ AGT  --- 89 ack 40 [13a 2 7 800] ------- [7:0 2:0 30 2] [22 0] 1 0
s 1.640511734 _2_ AGT  --- 91 tcp 1540 [0 0 0 0] ------- [2:0 7:0 32 0] [42 0] 0 0
r 1.640511734 _2_ RTR  --- 91 tcp 1540 [0 0 0 0] ------- [2:0 7:0 32 0] [42 0] 0 0
s 1.640511734 _2_ RTR  --- 91 tcp 1540 [0 0 0 0] ------- [2:0 7:0 30 7] [42 0] 0 0
r 1.654357683 _7_ AGT  --- 48 tcp 1540 [13a 7 2 800] ------- [2:0 7:0 30 7] [24 0] 1 0
s 1.654357683 _7_ AGT  --- 92 ack 40 [0 0 0 0] ------- [7:0 2:0 32 0] [24 0] 0 0
r 1.654357683 _7_ RTR  --- 92 ack 40 [0 0 0 0] ------- [7:0 2:0 32 0] [24 0] 0 0
s 1.654357683 _7_ RTR  --- 92 ack 40 [0 0 0 0] ------- [7:0 2:0 30 2] [24 0] 0 0
r 1.656523631 _2_ AGT  --- 90 ack 40 [13a 2 7 800] ------- [7:0 2:0 30 2] [23 0] 1 0
s 1.656523631 _2_ AGT  --- 93 tcp 1540 [0 0 0 0] ------- [2:0 7:0 32 0] [43 0] 0 0
r 1.656523631 _2_ RTR  --- 93 tcp 1540 [0 0 0 0] ------- [2:0 7:0 32 0] [43 0] 0 0
s 1.656523631 _2_ RTR  --- 93 tcp 1540 [0 0 0 0] ------- [2:0 7:0 30 7] [43 0] 0 0
r 1.670369579 _7_ AGT  --- 53 tcp 1540 [13a 7 2 800] ------- [2:0 7:0 30 7] [25 0] 1 0
s 1.670369579 _7_ AGT  --- 94 ack 40 [0 0 0 0] ------- [7:0 2:0 32 0] [25 0] 0 0
r 1.670369579 _7_ RTR  --- 94 ack 40 [0 0 0 0] ------- [7:0 2:0 32 0] [25 0] 0 0
s 1.670369579 _7_ RTR  --- 94 ack 40 [0 0 0 0] ------- [7:0 2:0 30 2] [25 0] 0 0
r 1.672335528 _2_ AGT  --- 92 ack 40 [13a 2 7 800] ------- [7:0 2:0 30 2] [24 0] 1 0
s 1.672335528 _2_ AGT  --- 95 tcp 1540 [0 0 0 0] ------- [2:0 7:0 32 0] [44 0] 0 0
r 1.672335528 _2_ RTR  --- 95 tcp 1540 [0 0 0 0] ------- [2:0 7:0 32 0] [44 0] 0 0
s 1.672335528 _2_ RTR  --- 95 tcp 1540 [0 0 0 0] ------- [2:0 7:0 30 7] [44 0] 0 0
r 1.686361476 _7_ AGT  --- 54 tcp 1540 [13a 7 2 800] ------- [2:0 7:0 30 7] [26 0] 1 0
s 1.686361476 _7_ AGT  --- 96 ack 40 [0 0 0 0] ------- [7:0 2:0 32 0] [26 0] 0 0
r 1.686361476 _7_ RTR  --- 96 ack 40 [0 0 0 0] ------- [7:0 2:0 32 0] [26 0] 0 0
s 1.686361476 _7_ RTR  --- 96 ack 40 [0 0 0 0] ------- [7:0 2:0 30 2] [26 0] 0 0
r 1.700288075 _7_ AGT  --- 55 tcp 1540 [13a 7 2 800] ------- [2:0 7:0 30 7] [27 0] 1 0
s 1.700288075 _7_ AGT  --- 97 ack 40 [0 0 0 0] ------- [7:0 2:0 32 0] [27 0] 0 0
r 1.700288075 _7_ RTR  --- 97 ack 40 [0 0 0 0] ------- [7:0 2:0 32 0] [27 0] 0 0
s 1.700288075 _7_ RTR  --- 97 ack 40 [0 0 0 0] ------- [7:0 2:0 30 2] [27 0] 0 0
r 1.702154023 _2_ AGT  --- 94 ack 40 [13a 2 7 800] ------- [7:0 2:0 30 2] [25 0] 1 0
s 1.702154023 _2_ AGT  --- 98 tcp 1540 [0 0 0 0] ------- [2:0 7:0 32 0] [45 0] 0 0
r 1.702154023 _2_ RTR  --- 98 tcp 1540 [0 0 0 0] ------- [2:0 7:0 32 0] [45 0] 0 0
s 1.702154023 _2_ RTR  --- 98 tcp 1540 [0 0 0 0] ------- [2:0 7:0 30 7] [45 0] 0 0
r 1.704270502 _3_ RTR  --- 88 ack 40 [13a 3 9 800] ------- [9:0 0:0 30 3] [3 0] 1 0
f 1.704270502 _3_ RTR  --- 88 ack 40 [13a 3 9 800] ------- [9:0 0:0 29 0] [3 0] 1 0
r 1.718276382 _9_ AGT  --- 68 tcp 1540 [13a 9 3 800] ------- [0:0 9:0 29 9] [4 0] 2 0
s 1.718276382 _9_ AGT  --- 99 ack 40 [0 0 0 0] ------- [9:0 0:0 32 0] [4 0] 0 0
r 1.718276382 _9_ RTR  --- 99 ack 40 [0 0 0 0] ------- [9:0 0:0 32 0] [4 0] 0 0
s 1.718276382 _9_ RTR  --- 99 ack 40 [0 0 0 0] ------- [9:0 0:0 30 3] [4 0] 0 0
r 1.732192938 _7_ AGT  --- 56 tcp 1540 [13a 7 2 800] ------- [2:0 7:0 30 7] [28 0] 1 0
s 1.732192938 _7_ AGT  --- 100 ack 40 [0 0 0 0] ------- [7:0 2:0 32 0] [28 0] 0 0
r 1.732192938 _7_ RTR  --- 100 ack 40 [0 0 0 0] ------- [7:0 2:0 32 0] [28 0] 0 0
s 1.732192938 _7_ RTR  --- 100 ack 40 [0 0 0 0] ------- [7:0 2:0 30 2] [28 0] 0 0
r 1.746019536 _7_ AGT  --- 57 tcp 1540 [13a 7 2 800] ------- [2:0 7:0 30 7] [29 0] 1 0
s 1.746019536 _7_ AGT  --- 101 ack 40 [0 0 0 0] ------- [7:0 2:0 32 0] [29 0] 0 0
r 1.746019536 _7_ RTR  --- 101 ack 40 [0 0 0 0] ------- [7:0 2:0 32 0] [29 0] 0 0
s 1.746019536 _7_ RTR  --- 101 ack 40 [0 0 0 0] ------- [7:0 2:0 30 2] [29 0] 0 0
r 1.748045486 _2_ AGT  --- 96 ack 40 [13a 2 7 800] ------- [7:0 2:0 30 2] [26 0] 1 0
s 1.748045486 _2_ AGT  --- 102 tcp 1540 [0 0 0 0] ------- [2:0 7:0 32 0] [46 0] 0 0
r 1.748045486 _2_ RTR  --- 102 tcp 1540 [0 0 0 0] ------- [2:0 7:0 32 0] [46 0] 0 0
s 1.748045486 _2_ RTR  --- 102 tcp 1540 [0 0 0 0] ------- [2:0 7:0 30 7] [46 0] 0 0