M 1.00000 0 (683.00, 243.00, 0.00), (259.00, 556.00), 7.00
M 1.00000 1 (949.00, 356.00, 0.00), (125.00, 125.00), 5.00
M 1.00000 2 (311.00, 348.00, 0.00), (77.00, 755.00), 8.00
M 1.00000 3 (672.00, 423.00, 0.00), (363.00, 962.00), 2.00
M 1.00000 4 (978.00, 378.00, 0.00), (691.00, 765.00), 10.00
M 1.00000 5 (757.00, 409.00, 0.00), (418.00, 266.00), 1.00
M 1.00000 6 (315.00, 508.00, 0.00), (568.00, 848.00), 0.00
M 1.00000 7 (198.00, 190.00, 0.00), (45.00, 450.00), 6.00
M 1.00000 8 (573.00, 789.00, 0.00), (875.00, 383.00), 5.00
M 1.00000 9 (488.00, 430.00, 0.00), (66.00, 752.00), 8.00
s 1.000000000 _0_ AGT  --- 0 tcp 40 [0 0 0 0] ------- [0:0 9:0 32 0] [0 0] 0 0
r 1.000000000 _0_ RTR  --- 0 tcp 40 [0 0 0 0] ------- [0:0 9:0 32 0] [0 0] 0 0
s 1.000000000 _1_ AGT  --- 1 tcp 40 [0 0 0 0] ------- [1:0 8:0 32 0] [0 0] 0 0
r 1.000000000 _1_ RTR  --- 1 tcp 40 [0 0 0 0] ------- [1:0 8:0 32 0] [0 0] 0 0
s 1.000000000 _2_ AGT  --- 2 tcp 40 [0 0 0 0] ------- [2:0 7:0 32 0] [0 0] 0 0
r 1.000000000 _2_ RTR  --- 2 tcp 40 [0 0 0 0] ------- [2:0 7:0 32 0] [0 0] 0 0
s 1.000000000 _3_ AGT  --- 3 tcp 40 [0 0 0 0] ------- [3:0 6:0 32 0] [0 0] 0 0
r 1.000000000 _3_ RTR  --- 3 tcp 40 [0 0 0 0] ------- [3:0 6:0 32 0] [0 0] 0 0
s 1.000000000 _4_ AGT  --- 4 tcp 40 [0 0 0 0] ------- [4:0 5:0 32 0] [0 0] 0 0
r 1.000000000 _4_ RTR  --- 4 tcp 40 [0 0 0 0] ------- [4:0 5:0 32 0] [0 0] 0 0
s 1.000000000 _0_ RTR  --- 0 AODV 48 [0 0 0 0] ------- [0:255 -1:255 30 0] [0x2 1 1 [9 0] [0 4]] (REQUEST)
s 1.000000000 _1_ RTR  --- 0 AODV 48 [0 0 0 0] ------- [1:255 -1:255 30 0] [0x2 1 1 [8 0] [1 4]] (REQUEST)
s 1.000000000 _2_ RTR  --- 0 AODV 48 [0 0 0 0] ------- [2:255 -1:255 30 0] [0x2 1 1 [7 0] [2 4]] (REQUEST)
s 1.000000000 _3_ RTR  --- 0 AODV 48 [0 0 0 0] ------- [3:255 -1:255 30 0] [0x2 1 1 [6 0] [3 4]] (REQUEST)
s 1.000000000 _4_ RTR  --- 0 AODV 48 [0 0 0 0] ------- [4:255 -1:255 30 0] [0x2 1 1 [5 0] [4 4]] (REQUEST)
r 1.000948601 _3_ RTR  --- 0 AODV 48 [0 ffffffff 0 800] ------- [0:255 -1:255 30 0] [0x2 1 1 [9 0] [0 4]] (REQUEST)
r 1.000948606 _5_ RTR  --- 0 AODV 48 [0 ffffffff 0 800] ------- [0:255 -1:255 30 0] [0x2 1 1 [9 0] [0 4]] (REQUEST)
r 1.002086888 _5_ RTR  --- 0 AODV 48 [0 ffffffff 3 800] ------- [3:255 -1:255 30 0] [0x2 1 1 [6 0] [3 4]] (REQUEST)
r 1.002087202 _0_ RTR  --- 0 AODV 48 [0 ffffffff 3 800] ------- [3:255 -1:255 30 0] [0x2 1 1 [6 0] [3 4]] (REQUEST)
r 1.002087215 _9_ RTR  --- 0 AODV 48 [0 ffffffff 3 800] ------- [3:255 -1:255 30 0] [0x2 1 1 [6 0] [3 4]] (REQUEST)
s 1.002590060 _5_ RTR  --- 0 AODV 48 [0 ffffffff 0 800] ------- [5:255 -1:255 29 0] [0x2 2 1 [9 0] [0 4]] (REQUEST)
s 1.003225285 _0_ RTR  --- 0 AODV 48 [0 ffffffff 3 800] ------- [0:255 -1:255 29 0] [0x2 2 1 [6 0] [3 4]] (REQUEST)
r 1.003509672 _4_ RTR  --- 0 AODV 48 [0 ffffffff 1 800] ------- [1:255 -1:255 30 0] [0x2 1 1 [8 0] [1 4]] (REQUEST)
r 1.003510215 _5_ RTR  --- 0 AODV 48 [0 ffffffff 1 800] ------- [1:255 -1:255 30 0] [0x2 1 1 [8 0] [1 4]] (REQUEST)
r 1.003550364 _6_ RTR  --- 0 AODV 48 [0 ffffffff 2 800] ------- [2:255 -1:255 30 0] [0x2 1 1 [7 0] [2 4]] (REQUEST)
r 1.003550478 _7_ RTR  --- 0 AODV 48 [0 ffffffff 2 800] ------- [2:255 -1:255 30 0] [0x2 1 1 [7 0] [2 4]] (REQUEST)
s 1.003550478 _7_ RTR  --- 0 AODV 44 [0 0 0 0] ------- [7:255 2:255 30 2] [0x4 1 [7 4] 10.000000] (REPLY)
r 1.004607794 _1_ RTR  --- 0 AODV 48 [0 ffffffff 4 800] ------- [4:255 -1:255 30 0] [0x2 1 1 [5 0] [4 4]] (REQUEST)
r 1.004608416 _5_ RTR  --- 0 AODV 48 [0 ffffffff 4 800] ------- [4:255 -1:255 30 0] [0x2 1 1 [5 0] [4 4]] (REQUEST)
s 1.004608416 _5_ RTR  --- 0 AODV 44 [0 0 0 0] ------- [5:255 4:255 30 4] [0x4 1 [5 4] 10.000000] (REPLY)
s 1.006997625 _5_ RTR  --- 0 AODV 48 [0 ffffffff 1 800] ------- [5:255 -1:255 29 0] [0x2 2 1 [8 0] [1 4]] (REQUEST)
r 1.007463208 _3_ RTR  --- 0 AODV 48 [0 ffffffff 5 800] ------- [5:255 -1:255 29 0] [0x2 2 1 [9 0] [0 4]] (REQUEST)
r 1.007463527 _0_ RTR  --- 0 AODV 48 [0 ffffffff 5 800] ------- [5:255 -1:255 29 0] [0x2 2 1 [9 0] [0 4]] (REQUEST)
r 1.007463585 _1_ RTR  --- 0 AODV 48 [0 ffffffff 5 800] ------- [5:255 -1:255 29 0] [0x2 2 1 [9 0] [0 4]] (REQUEST)
r 1.007463664 _4_ RTR  --- 0 AODV 48 [0 ffffffff 5 800] ------- [5:255 -1:255 29 0] [0x2 2 1 [9 0] [0 4]] (REQUEST)
s 1.007637220 _6_ RTR  --- 0 AODV 48 [0 ffffffff 2 800] ------- [6:255 -1:255 29 0] [0x2 2 1 [7 0] [2 4]] (REQUEST)
r 1.008401208 _3_ RTR  --- 0 AODV 48 [0 ffffffff 5 800] ------- [5:255 -1:255 29 0] [0x2 2 1 [8 0] [1 4]] (REQUEST)
r 1.008401527 _0_ RTR  --- 0 AODV 48 [0 ffffffff 5 800] ------- [5:255 -1:255 29 0] [0x2 2 1 [8 0] [1 4]] (REQUEST)
r 1.008401585 _1_ RTR  --- 0 AODV 48 [0 ffffffff 5 800] ------- [5:255 -1:255 29 0] [0x2 2 1 [8 0] [1 4]] (REQUEST)
r 1.008401664 _4_ RTR  --- 0 AODV 48 [0 ffffffff 5 800] ------- [5:255 -1:255 29 0] [0x2 2 1 [8 0] [1 4]] (REQUEST)
s 1.008487565 _5_ RTR  --- 0 AODV 48 [0 ffffffff 3 800] ------- [5:255 -1:255 29 0] [0x2 2 1 [6 0] [3 4]] (REQUEST)
s 1.009311836 _3_ RTR  --- 0 AODV 48 [0 ffffffff 0 800] ------- [3:255 -1:255 29 0] [0x2 2 1 [9 0] [0 4]] (REQUEST)
s 1.010275179 _0_ RTR  --- 0 AODV 48 [0 ffffffff 5 800] ------- [0:255 -1:255 28 0] [0x2 3 1 [8 0] [1 4]] (REQUEST)
s 1.010684492 _9_ RTR  --- 0 AODV 48 [0 ffffffff 3 800] ------- [9:255 -1:255 29 0] [0x2 2 1 [6 0] [3 4]] (REQUEST)
r 1.010822964 _2_ RTR  --- 0 AODV 48 [0 ffffffff 6 800] ------- [6:255 -1:255 29 0] [0x2 2 1 [7 0] [2 4]] (REQUEST)
s 1.011579958 _4_ RTR  --- 0 AODV 48 [0 ffffffff 1 800] ------- [4:255 -1:255 29 0] [0x2 2 1 [8 0] [1 4]] (REQUEST)
r 1.012106228 _3_ RTR  --- 0 AODV 48 [0 ffffffff 5 800] ------- [5:255 -1:255 29 0] [0x2 2 1 [6 0] [3 4]] (REQUEST)
r 1.012106546 _0_ RTR  --- 0 AODV 48 [0 ffffffff 5 800] ------- [5:255 -1:255 29 0] [0x2 2 1 [6 0] [3 4]] (REQUEST)
r 1.012106604 _1_ RTR  --- 0 AODV 48 [0 ffffffff 5 800] ------- [5:255 -1:255 29 0] [0x2 2 1 [6 0] [3 4]] (REQUEST)
r 1.012106684 _4_ RTR  --- 0 AODV 48 [0 ffffffff 5 800] ------- [5:255 -1:255 29 0] [0x2 2 1 [6 0] [3 4]] (REQUEST)
s 1.012443283 _3_ RTR  --- 0 AODV 48 [0 ffffffff 5 800] ------- [3:255 -1:255 28 0] [0x2 3 1 [8 0] [1 4]] (REQUEST)
s 1.013006046 _1_ RTR  --- 0 AODV 48 [0 ffffffff 4 800] ------- [1:255 -1:255 29 0] [0x2 2 1 [5 0] [4 4]] (REQUEST)
s 1.013337639 _1_ RTR  --- 0 AODV 48 [0 ffffffff 5 800] ------- [1:255 -1:255 28 0] [0x2 3 1 [6 0] [3 4]] (REQUEST)
r 1.013473787 _3_ RTR  --- 0 AODV 48 [0 ffffffff 0 800] ------- [0:255 -1:255 29 0] [0x2 2 1 [6 0] [3 4]] (REQUEST)
r 1.013473792 _5_ RTR  --- 0 AODV 48 [0 ffffffff 0 800] ------- [0:255 -1:255 29 0] [0x2 2 1 [6 0] [3 4]] (REQUEST)
s 1.014237074 _1_ RTR  --- 0 AODV 48 [0 ffffffff 5 800] ------- [1:255 -1:255 28 0] [0x2 3 1 [9 0] [0 4]] (REQUEST)
r 1.014371787 _3_ RTR  --- 0 AODV 48 [0 ffffffff 0 800] ------- [0:255 -1:255 28 0] [0x2 3 1 [8 0] [1 4]] (REQUEST)
r 1.014371792 _5_ RTR  --- 0 AODV 48 [0 ffffffff 0 800] ------- [0:255 -1:255 28 0] [0x2 3 1 [8 0] [1 4]] (REQUEST)
s 1.015085983 _4_ RTR  --- 0 AODV 48 [0 ffffffff 5 800] ------- [4:255 -1:255 28 0] [0x2 3 1 [9 0] [0 4]] (REQUEST)
r 1.015570074 _5_ RTR  --- 0 AODV 48 [0 ffffffff 3 800] ------- [3:255 -1:255 29 0] [0x2 2 1 [9 0] [0 4]] (REQUEST)
r 1.015570388 _0_ RTR  --- 0 AODV 48 [0 ffffffff 3 800] ------- [3:255 -1:255 29 0] [0x2 2 1 [9 0] [0 4]] (REQUEST)
r 1.015570401 _9_ RTR  --- 0 AODV 48 [0 ffffffff 3 800] ------- [3:255 -1:255 29 0] [0x2 2 1 [9 0] [0 4]] (REQUEST)
s 1.015570401 _9_ RTR  --- 0 AODV 44 [0 0 0 0] ------- [9:255 0:255 30 3] [0x4 1 [9 4] 10.000000] (REPLY)
r 1.016509015 _3_ RTR  --- 0 AODV 48 [0 ffffffff 9 800] ------- [9:255 -1:255 29 0] [0x2 2 1 [6 0] [3 4]] (REQUEST)
r 1.016509033 _6_ RTR  --- 0 AODV 48 [0 ffffffff 9 800] ------- [9:255 -1:255 29 0] [0x2 2 1 [6 0] [3 4]] (REQUEST)
s 1.016509033 _6_ RTR  --- 0 AODV 44 [0 0 0 0] ------- [6:255 3:255 30 9] [0x4 1 [6 4] 10.000000] (REPLY)
r 1.016509051 _2_ RTR  --- 0 AODV 48 [0 ffffffff 9 800] ------- [9:255 -1:255 29 0] [0x2 2 1 [6 0] [3 4]] (REQUEST)
r 1.018252079 _4_ RTR  --- 0 AODV 48 [0 ffffffff 1 800] ------- [1:255 -1:255 29 0] [0x2 2 1 [5 0] [4 4]] (REQUEST)
r 1.018252621 _5_ RTR  --- 0 AODV 48 [0 ffffffff 1 800] ------- [1:255 -1:255 29 0] [0x2 2 1 [5 0] [4 4]] (REQUEST)
s 1.018792923 _4_ RTR  --- 0 AODV 48 [0 ffffffff 5 800] ------- [4:255 -1:255 28 0] [0x2 3 1 [6 0] [3 4]] (REQUEST)
r 1.019150079 _4_ RTR  --- 0 AODV 48 [0 ffffffff 1 800] ------- [1:255 -1:255 28 0] [0x2 3 1 [9 0] [0 4]] (REQUEST)
r 1.019150621 _5_ RTR  --- 0 AODV 48 [0 ffffffff 1 800] ------- [1:255 -1:255 28 0] [0x2 3 1 [9 0] [0 4]] (REQUEST)
r 1.020288079 _4_ RTR  --- 0 AODV 48 [0 ffffffff 1 800] ------- [1:255 -1:255 28 0] [0x2 3 1 [6 0] [3 4]] (REQUEST)
r 1.020288621 _5_ RTR  --- 0 AODV 48 [0 ffffffff 1 800] ------- [1:255 -1:255 28 0] [0x2 3 1 [6 0] [3 4]] (REQUEST)
s 1.020765924 _2_ RTR  --- 0 AODV 48 [0 ffffffff 9 800] ------- [2:255 -1:255 28 0] [0x2 3 1 [6 0] [3 4]] (REQUEST)
r 1.022728856 _6_ RTR  --- 0 AODV 48 [0 ffffffff 2 800] ------- [2:255 -1:255 28 0] [0x2 3 1 [6 0] [3 4]] (REQUEST)
r 1.022728971 _7_ RTR  --- 0 AODV 48 [0 ffffffff 2 800] ------- [2:255 -1:255 28 0] [0x2 3 1 [6 0] [3 4]] (REQUEST)
r 1.023597175 _1_ RTR  --- 0 AODV 48 [0 ffffffff 4 800] ------- [4:255 -1:255 28 0] [0x2 3 1 [6 0] [3 4]] (REQUEST)
r 1.023597796 _5_ RTR  --- 0 AODV 48 [0 ffffffff 4 800] ------- [4:255 -1:255 28 0] [0x2 3 1 [6 0] [3 4]] (REQUEST)
r 1.025162027 _4_ RTR  --- 0 AODV 44 [13a 4 5 800] ------- [5:255 4:255 30 4] [0x4 1 [5 4] 10.000000] (REPLY)
s 1.025162027 _4_ RTR  --- 4 tcp 40 [0 0 0 0] ------- [4:0 5:0 30 5] [0 0] 0 0
r 1.026654148 _1_ RTR  --- 0 AODV 48 [0 ffffffff 4 800] ------- [4:255 -1:255 28 0] [0x2 3 1 [9 0] [0 4]] (REQUEST)
r 1.026654770 _5_ RTR  --- 0 AODV 48 [0 ffffffff 4 800] ------- [4:255 -1:255 28 0] [0x2 3 1 [9 0] [0 4]] (REQUEST)
r 1.027672148 _1_ RTR  --- 0 AODV 48 [0 ffffffff 4 800] ------- [4:255 -1:255 29 0] [0x2 2 1 [8 0] [1 4]] (REQUEST)
r 1.027672770 _5_ RTR  --- 0 AODV 48 [0 ffffffff 4 800] ------- [4:255 -1:255 29 0] [0x2 2 1 [8 0] [1 4]] (REQUEST)
r 1.029392914 _2_ RTR  --- 0 AODV 44 [13a 2 7 800] ------- [7:255 2:255 30 2] [0x4 1 [7 4] 10.000000] (REPLY)
s 1.029392914 _2_ RTR  --- 2 tcp 40 [0 0 0 0] ------- [2:0 7:0 30 7] [0 0] 0 0
r 1.031386213 _7_ AGT  --- 2 tcp 40 [13a 7 2 800] ------- [2:0 7:0 30 7] [0 0] 1 0
s 1.031386213 _7_ AGT  --- 5 ack 40 [0 0 0 0] ------- [7:0 2:0 32 0] [0 0] 0 0
r 1.031386213 _7_ RTR  --- 5 ack 40 [0 0 0 0] ------- [7:0 2:0 32 0] [0 0] 0 0
s 1.031386213 _7_ RTR  --- 5 ack 40 [0 0 0 0] ------- [7:0 2:0 30 2] [0 0] 0 0
s 1.032489038 _7_ RTR  --- 0 AODV 48 [0 ffffffff 2 800] ------- [7:255 -1:255 27 0] [0x2 4 1 [6 0] [3 4]] (REQUEST)
r 1.033312156 _2_ AGT  --- 5 ack 40 [13a 2 7 800] ------- [7:0 2:0 30 2] [0 0] 1 0
s 1.033312156 _2_ AGT  --- 6 tcp 1540 [0 0 0 0] ------- [2:0 7:0 32 0] [1 0] 0 0
r 1.033312156 _2_ RTR  --- 6 tcp 1540 [0 0 0 0] ------- [2:0 7:0 32 0] [1 0] 0 0
s 1.033312156 _2_ AGT  --- 7 tcp 1540 [0 0 0 0] ------- [2:0 7:0 32 0] [2 0] 0 0
r 1.033312156 _2_ RTR  --- 7 tcp 1540 [0 0 0 0] ------- [2:0 7:0 32 0] [2 0] 0 0
s 1.033312156 _2_ RTR  --- 6 tcp 1540 [0 0 0 0] ------- [2:0 7:0 30 7] [1 0] 0 0
s 1.033312156 _2_ RTR  --- 7 tcp 1540 [0 0 0 0] ------- [2:0 7:0 30 7] [2 0] 0 0
r 1.047675700 _7_ AGT  --- 6 tcp 1540 [13a 7 2 800] ------- [2:0 7:0 30 7] [1 0] 1 0
s 1.047675700 _7_ AGT  --- 8 ack 40 [0 0 0 0] ------- [7:0 2:0 32 0] [1 0] 0 0
r 1.047675700 _7_ RTR  --- 8 ack 40 [0 0 0 0] ------- [7:0 2:0 32 0] [1 0] 0 0
s 1.047675700 _7_ RTR  --- 8 ack 40 [0 0 0 0] ------- [7:0 2:0 30 2] [1 0] 0 0
r 1.048968348 _2_ RTR  --- 0 AODV 48 [0 ffffffff 7 800] ------- [7:255 -1:255 27 0] [0x2 4 1 [6 0] [3 4]] (REQUEST)
r 1.062520290 _7_ AGT  --- 7 tcp 1540 [13a 7 2 800] ------- [2:0 7:0 30 7] [2 0] 1 0
s 1.062520290 _7_ AGT  --- 9 ack 40 [0 0 0 0] ------- [7:0 2:0 32 0] [2 0] 0 0
r 1.062520290 _7_ RTR  --- 9 ack 40 [0 0 0 0] ------- [7:0 2:0 32 0] [2 0] 0 0
s 1.062520290 _7_ RTR  --- 9 ack 40 [0 0 0 0] ------- [7:0 2:0 30 2] [2 0] 0 0
r 1.065016447 _5_ RTR  --- 0 AODV 48 [0 ffffffff 3 800] ------- [3:255 -1:255 28 0] [0x2 3 1 [8 0] [1 4]] (REQUEST)
r 1.065016760 _0_ RTR  --- 0 AODV 48 [0 ffffffff 3 800] ------- [3:255 -1:255 28 0] [0x2 3 1 [8 0] [1 4]] (REQUEST)
r 1.065016775 _9_ RTR  --- 0 AODV 48 [0 ffffffff 3 800] ------- [3:255 -1:255 28 0] [0x2 3 1 [8 0] [1 4]] (REQUEST)
s 1.069080550 _9_ RTR  --- 0 AODV 48 [0 ffffffff 3 800] ------- [9:255 -1:255 27 0] [0x2 4 1 [8 0] [1 4]] (REQUEST)
r 1.070480373 _3_ RTR  --- 0 AODV 44 [13a 3 9 800] ------- [9:255 0:255 30 3] [0x4 1 [9 4] 10.000000] (REPLY)
f 1.070480373 _3_ RTR  --- 0 AODV 44 [13a 3 9 800] ------- [9:255 0:255 29 0] [0x4 2 [9 4] 10.000000] (REPLY)
r 1.075251576 _0_ RTR  --- 0 AODV 44 [13a 0 3 800] ------- [9:255 0:255 29 0] [0x4 2 [9 4] 10.000000] (REPLY)
s 1.075251576 _0_ RTR  --- 0 tcp 40 [0 0 0 0] ------- [0:0 9:0 30 3] [0 0] 0 0
r 1.077217377 _3_ RTR  --- 0 tcp 40 [13a 3 0 800] ------- [0:0 9:0 30 3] [0 0] 1 0
f 1.077217377 _3_ RTR  --- 0 tcp 40 [13a 3 0 800] ------- [0:0 9:0 29 9] [0 0] 1 0
r 1.078660293 _3_ RTR  --- 0 AODV 48 [0 ffffffff 9 800] ------- [9:255 -1:255 27 0] [0x2 4 1 [8 0] [1 4]] (REQUEST)
r 1.078660308 _6_ RTR  --- 0 AODV 48 [0 ffffffff 9 800] ------- [9:255 -1:255 27 0] [0x2 4 1 [8 0] [1 4]] (REQUEST)
r 1.078660327 _2_ RTR  --- 0 AODV 48 [0 ffffffff 9 800] ------- [9:255 -1:255 27 0] [0x2 4 1 [8 0] [1 4]] (REQUEST)
s 1.078693830 _2_ RTR  --- 0 AODV 48 [0 ffffffff 9 800] ------- [2:255 -1:255 26 0] [0x2 5 1 [8 0] [1 4]] (REQUEST)
r 1.079642362 _6_ RTR  --- 0 AODV 48 [0 ffffffff 2 800] ------- [2:255 -1:255 26 0] [0x2 5 1 [8 0] [1 4]] (REQUEST)
r 1.079642478 _7_ RTR  --- 0 AODV 48 [0 ffffffff 2 800] ------- [2:255 -1:255 26 0] [0x2 5 1 [8 0] [1 4]] (REQUEST)
r 1.079642479 _9_ RTR  --- 0 AODV 48 [0 ffffffff 2 800] ------- [2:255 -1:255 26 0] [0x2 5 1 [8 0] [1 4]] (REQUEST)
r 1.081206253 _9_ RTR  --- 0 AODV 44 [13a 9 6 800] ------- [6:255 3:255 30 9] [0x4 1 [6 4] 10.000000] (REPLY)
f 1.081206253 _9_ RTR  --- 0 AODV 44 [13a 9 6 800] ------- [6:255 3:255 29 3] [0x4 2 [6 4] 10.000000] (REPLY)
s 1.081710198 _6_ RTR  --- 0 AODV 48 [0 ffffffff 9 800] ------- [6:255 -1:255 26 0] [0x2 5 1 [8 0] [1 4]] (REQUEST)
r 1.083084099 _3_ RTR  --- 0 AODV 44 [13a 3 9 800] ------- [6:255 3:255 29 3] [0x4 2 [6 4] 10.000000] (REPLY)
s 1.083084099 _3_ RTR  --- 3 tcp 40 [0 0 0 0] ------- [3:0 6:0 30 9] [0 0] 0 0
r 1.084929945 _9_ AGT  --- 0 tcp 40 [13a 9 3 800] ------- [0:0 9:0 29 9] [0 0] 2 0
s 1.084929945 _9_ AGT  --- 10 ack 40 [0 0 0 0] ------- [9:0 0:0 32 0] [0 0] 0 0
r 1.084929945 _9_ RTR  --- 10 ack 40 [0 0 0 0] ------- [9:0 0:0 32 0] [0 0] 0 0
s 1.084929945 _9_ RTR  --- 10 ack 40 [0 0 0 0] ------- [9:0 0:0 30 3] [0 0] 0 0
r 1.086513084 _2_ RTR  --- 0 AODV 48 [0 ffffffff 6 800] ------- [6:255 -1:255 26 0] [0x2 5 1 [8 0] [1 4]] (REQUEST)
r 1.086513183 _9_ RTR  --- 0 AODV 48 [0 ffffffff 6 800] ------- [6:255 -1:255 26 0] [0x2 5 1 [8 0] [1 4]] (REQUEST)
r 1.088065029 _3_ RTR  --- 10 ack 40 [13a 3 9 800] ------- [9:0 0:0 30 3] [0 0] 1 0
f 1.088065029 _3_ RTR  --- 10 ack 40 [13a 3 9 800] ------- [9:0 0:0 29 0] [0 0] 1 0
s 1.088442434 _7_ RTR  --- 0 AODV 48 [0 ffffffff 2 800] ------- [7:255 -1:255 25 0] [0x2 6 1 [8 0] [1 4]] (REQUEST)
r 1.090030875 _9_ RTR  --- 3 tcp 40 [13a 9 3 800] ------- [3:0 6:0 30 9] [0 0] 1 0
f 1.090030875 _9_ RTR  --- 3 tcp 40 [13a 9 3 800] ------- [3:0 6:0 29 6] [0 0] 1 0
r 1.094091195 _2_ AGT  --- 8 ack 40 [13a 2 7 800] ------- [7:0 2:0 30 2] [1 0] 1 0
s 1.094091195 _2_ AGT  --- 11 tcp 1540 [0 0 0 0] ------- [2:0 7:0 32 0] [3 0] 0 0
r 1.094091195 _2_ RTR  --- 11 tcp 1540 [0 0 0 0] ------- [2:0 7:0 32 0] [3 0] 0 0
s 1.094091195 _2_ AGT  --- 12 tcp 1540 [0 0 0 0] ------- [2:0 7:0 32 0] [4 0] 0 0
r 1.094091195 _2_ RTR  --- 12 tcp 1540 [0 0 0 0] ------- [2:0 7:0 32 0] [4 0] 0 0
s 1.094091195 _2_ RTR  --- 11 tcp 1540 [0 0 0 0] ------- [2:0 7:0 30 7] [3 0] 0 0
s 1.094091195 _2_ RTR  --- 12 tcp 1540 [0 0 0 0] ------- [2:0 7:0 30 7] [4 0] 0 0
r 1.095724490 _2_ RTR  --- 0 AODV 48 [0 ffffffff 7 800] ------- [7:255 -1:255 25 0] [0x2 6 1 [8 0] [1 4]] (REQUEST)
r 1.097255786 _2_ AGT  --- 9 ack 40 [13a 2 7 800] ------- [7:0 2:0 30 2] [2 0] 1 0
s 1.097255786 _2_ AGT  --- 13 tcp 1540 [0 0 0 0] ------- [2:0 7:0 32 0] [5 0] 0 0
r 1.097255786 _2_ RTR  --- 13 tcp 1540 [0 0 0 0] ------- [2:0 7:0 32 0] [5 0] 0 0
s 1.097255786 _2_ AGT  --- 14 tcp 1540 [0 0 0 0] ------- [2:0 7:0 32 0] [6 0] 0 0
r 1.097255786 _2_ RTR  --- 14 tcp 1540 [0 0 0 0] ------- [2:0 7:0 32 0] [6 0] 0 0
s 1.097255786 _2_ RTR  --- 13 tcp 1540 [0 0 0 0] ------- [2:0 7:0 30 7] [5 0] 0 0
s 1.097255786 _2_ RTR  --- 14 tcp 1540 [0 0 0 0] ------- [2:0 7:0 30 7] [6 0] 0 0
r 1.111241729 _7_ AGT  --- 11 tcp 1540 [13a 7 2 800] ------- [2:0 7:0 30 7] [3 0] 1 0
s 1.111241729 _7_ AGT  --- 15 ack 40 [0 0 0 0] ------- [7:0 2:0 32 0] [3 0] 0 0
r 1.111241729 _7_ RTR  --- 15 ack 40 [0 0 0 0] ------- [7:0 2:0 32 0] [3 0] 0 0
s 1.111241729 _7_ RTR  --- 15 ack 40 [0 0 0 0] ------- [7:0 2:0 30 2] [3 0] 0 0
r 1.114334915 _6_ AGT  --- 3 tcp 40 [13a 6 9 800] ------- [3:0 6:0 29 6] [0 0] 2 0
s 1.114334915 _6_ AGT  --- 16 ack 40 [0 0 0 0] ------- [6:0 3:0 32 0] [0 0] 0 0
r 1.114334915 _6_ RTR  --- 16 ack 40 [0 0 0 0] ------- [6:0 3:0 32 0] [0 0] 0 0
s 1.114334915 _6_ RTR  --- 16 ack 40 [0 0 0 0] ------- [6:0 3:0 30 9] [0 0] 0 0
r 1.116540804 _9_ RTR  --- 16 ack 40 [13a 9 6 800] ------- [6:0 3:0 30 9] [0 0] 1 0
f 1.116540804 _9_ RTR  --- 16 ack 40 [13a 9 6 800] ------- [6:0 3:0 29 3] [0 0] 1 0
r 1.118486651 _3_ AGT  --- 16 ack 40 [13a 3 9 800] ------- [6:0 3:0 29 3] [0 0] 2 0
s 1.118486651 _3_ AGT  --- 17 tcp 1540 [0 0 0 0] ------- [3:0 6:0 32 0] [1 0] 0 0
r 1.118486651 _3_ RTR  --- 17 tcp 1540 [0 0 0 0] ------- [3:0 6:0 32 0] [1 0] 0 0
s 1.118486651 _3_ AGT  --- 18 tcp 1540 [0 0 0 0] ------- [3:0 6:0 32 0] [2 0] 0 0
r 1.118486651 _3_ RTR  --- 18 tcp 1540 [0 0 0 0] ------- [3:0 6:0 32 0] [2 0] 0 0
s 1.118486651 _3_ RTR  --- 17 tcp 1540 [0 0 0 0] ------- [3:0 6:0 30 9] [1 0] 0 0
s 1.118486651 _3_ RTR  --- 18 tcp 1540 [0 0 0 0] ------- [3:0 6:0 30 9] [2 0] 0 0
r 1.132897825 _7_ AGT  --- 12 tcp 1540 [13a 7 2 800] ------- [2:0 7:0 30 7] [4 0] 1 0
s 1.132897825 _7_ AGT  --- 19 ack 40 [0 0 0 0] ------- [7:0 2:0 32 0] [4 0] 0 0
r 1.132897825 _7_ RTR  --- 19 ack 40 [0 0 0 0] ------- [7:0 2:0 32 0] [4 0] 0 0
s 1.132897825 _7_ RTR  --- 19 ack 40 [0 0 0 0] ------- [7:0 2:0 30 2] [4 0] 0 0
r 1.134803768 _2_ AGT  --- 15 ack 40 [13a 2 7 800] ------- [7:0 2:0 30 2] [3 0] 1 0
s 1.134803768 _2_ AGT  --- 20 tcp 1540 [0 0 0 0] ------- [2:0 7:0 32 0] [7 0] 0 0
r 1.134803768 _2_ RTR  --- 20 tcp 1540 [0 0 0 0] ------- [2:0 7:0 32 0] [7 0] 0 0
s 1.134803768 _2_ AGT  --- 21 tcp 1540 [0 0 0 0] ------- [2:0 7:0 32 0] [8 0] 0 0
r 1.134803768 _2_ RTR  --- 21 tcp 1540 [0 0 0 0] ------- [2:0 7:0 32 0] [8 0] 0 0
s 1.134803768 _2_ RTR  --- 20 tcp 1540 [0 0 0 0] ------- [2:0 7:0 30 7] [7 0] 0 0
s 1.134803768 _2_ RTR  --- 21 tcp 1540 [0 0 0 0] ------- [2:0 7:0 30 7] [8 0] 0 0
D 1.136660680 _4_ RTR  CBK 4 tcp 40 [13a 5 4 800] ------- [4:0 5:0 30 5] [0 0] 0 0
s 1.136660680 _4_ RTR  --- 0 AODV 48 [0 0 0 0] ------- [4:255 -1:255 1 0] [0x8 3 [3 0] 0.000000] (ERROR)
r 1.137848804 _1_ RTR  --- 0 AODV 48 [0 ffffffff 4 800] ------- [4:255 -1:255 1 0] [0x8 3 [3 0] 0.000000] (ERROR)
r 1.148729712 _7_ AGT  --- 13 tcp 1540 [13a 7 2 800] ------- [2:0 7:0 30 7] [5 0] 1 0
s 1.148729712 _7_ AGT  --- 22 ack 40 [0 0 0 0] ------- [7:0 2:0 32 0] [5 0] 0 0
r 1.148729712 _7_ RTR  --- 22 ack 40 [0 0 0 0] ------- [7:0 2:0 32 0] [5 0] 0 0
s 1.148729712 _7_ RTR  --- 22 ack 40 [0 0 0 0] ------- [7:0 2:0 30 2] [5 0] 0 0
r 1.150595656 _2_ AGT  --- 19 ack 40 [13a 2 7 800] ------- [7:0 2:0 30 2] [4 0] 1 0
s 1.150595656 _2_ AGT  --- 23 tcp 1540 [0 0 0 0] ------- [2:0 7:0 32 0] [9 0] 0 0
r 1.150595656 _2_ RTR  --- 23 tcp 1540 [0 0 0 0] ------- [2:0 7:0 32 0] [9 0] 0 0
s 1.150595656 _2_ AGT  --- 24 tcp 1540 [0 0 0 0] ------- [2:0 7:0 32 0] [10 0] 0 0
r 1.150595656 _2_ RTR  --- 24 tcp 1540 [0 0 0 0] ------- [2:0 7:0 32 0] [10 0] 0 0
s 1.150595656 _2_ RTR  --- 23 tcp 1540 [0 0 0 0] ------- [2:0 7:0 30 7] [9 0] 0 0
s 1.150595656 _2_ RTR  --- 24 tcp 1540 [0 0 0 0] ------- [2:0 7:0 30 7] [10 0] 0 0
r 1.152422248 _2_ AGT  --- 22 ack 40 [13a 2 7 800] ------- [7:0 2:0 30 2] [5 0] 1 0
s 1.152422248 _2_ AGT  --- 25 tcp 1540 [0 0 0 0] ------- [2:0 7:0 32 0] [11 0] 0 0
r 1.152422248 _2_ RTR  --- 25 tcp 1540 [0 0 0 0] ------- [2:0 7:0 32 0] [11 0] 0 0
s 1.152422248 _2_ AGT  --- 26 tcp 1540 [0 0 0 0] ------- [2:0 7:0 32 0] [12 0] 0 0
r 1.152422248 _2_ RTR  --- 26 tcp 1540 [0 0 0 0] ------- [2:0 7:0 32 0] [12 0] 0 0
s 1.152422248 _2_ RTR  --- 25 tcp 1540 [0 0 0 0] ------- [2:0 7:0 30 7] [11 0] 0 0
s 1.152422248 _2_ RTR  --- 26 tcp 1540 [0 0 0 0] ------- [2:0 7:0 30 7] [12 0] 0 0
r 1.166308192 _7_ AGT  --- 14 tcp 1540 [13a 7 2 800] ------- [2:0 7:0 30 7] [6 0] 1 0
s 1.166308192 _7_ AGT  --- 27 ack 40 [0 0 0 0] ------- [7:0 2:0 32 0] [6 0] 0 0
r 1.166308192 _7_ RTR  --- 27 ack 40 [0 0 0 0] ------- [7:0 2:0 32 0] [6 0] 0 0
s 1.166308192 _7_ RTR  --- 27 ack 40 [0 0 0 0] ------- [7:0 2:0 30 2] [6 0] 0 0
r 1.168614136 _2_ AGT  --- 27 ack 40 [13a 2 7 800] ------- [7:0 2:0 30 2] [6 0] 1 0
s 1.168614136 _2_ AGT  --- 28 tcp 1540 [0 0 0 0] ------- [2:0 7:0 32 0] [13 0] 0 0
r 1.168614136 _2_ RTR  --- 28 tcp 1540 [0 0 0 0] ------- [2:0 7:0 32 0] [13 0] 0 0
s 1.168614136 _2_ AGT  --- 29 tcp 1540 [0 0 0 0] ------- [2:0 7:0 32 0] [14 0] 0 0
r 1.168614136 _2_ RTR  --- 29 tcp 1540 [0 0 0 0] ------- [2:0 7:0 32 0] [14 0] 0 0
s 1.168614136 _2_ RTR  --- 28 tcp 1540 [0 0 0 0] ------- [2:0 7:0 30 7] [13 0] 0 0
s 1.168614136 _2_ RTR  --- 29 tcp 1540 [0 0 0 0] ------- [2:0 7:0 30 7] [14 0] 0 0
r 1.182520080 _7_ AGT  --- 20 tcp 1540 [13a 7 2 800] ------- [2:0 7:0 30 7] [7 0] 1 0
s 1.182520080 _7_ AGT  --- 30 ack 40 [0 0 0 0] ------- [7:0 2:0 32 0] [7 0] 0 0
r 1.182520080 _7_ RTR  --- 30 ack 40 [0 0 0 0] ------- [7:0 2:0 32 0] [7 0] 0 0
s 1.182520080 _7_ RTR  --- 30 ack 40 [0 0 0 0] ------- [7:0 2:0 30 2] [7 0] 0 0
r 1.184791639 _0_ AGT  --- 10 ack 40 [13a 0 3 800] ------- [9:0 0:0 29 0] [0 0] 2 0
s 1.184791639 _0_ AGT  --- 31 tcp 1540 [0 0 0 0] ------- [0:0 9:0 32 0] [1 0] 0 0
r 1.184791639 _0_ RTR  --- 31 tcp 1540 [0 0 0 0] ------- [0:0 9:0 32 0] [1 0] 0 0
s 1.184791639 _0_ AGT  --- 32 tcp 1540 [0 0 0 0] ------- [0:0 9:0 32 0] [2 0] 0 0
r 1.184791639 _0_ RTR  --- 32 tcp 1540 [0 0 0 0] ------- [0:0 9:0 32 0] [2 0] 0 0
s 1.184791639 _0_ RTR  --- 31 tcp 1540 [0 0 0 0] ------- [0:0 9:0 30 3] [1 0] 0 0
s 1.184791639 _0_ RTR  --- 32 tcp 1540 [0 0 0 0] ------- [0:0 9:0 30 3] [2 0] 0 0
r 1.198837437 _3_ RTR  --- 31 tcp 1540 [13a 3 0 800] ------- [0:0 9:0 30 3] [1 0] 1 0
f 1.198837437 _3_ RTR  --- 31 tcp 1540 [13a 3 0 800] ------- [0:0 9:0 29 9] [1 0] 1 0
r 1.212803834 _3_ RTR  --- 32 tcp 1540 [13a 3 0 800] ------- [0:0 9:0 30 3] [2 0] 1 0
f 1.212803834 _3_ RTR  --- 32 tcp 1540 [13a 3 0 800] ------- [0:0 9:0 29 9] [2 0] 1 0
r 1.226809687 _9_ RTR  --- 17 tcp 1540 [13a 9 3 800] ------- [3:0 6:0 30 9] [1 0] 1 0
f 1.226809687 _9_ RTR  --- 17 tcp 1540 [13a 9 3 800] ------- [3:0 6:0 29 6] [1 0] 1 0
r 1.240736159 _9_ RTR  --- 18 tcp 1540 [13a 9 3 800] ------- [3:0 6:0 30 9] [2 0] 1 0
f 1.240736159 _9_ RTR  --- 18 tcp 1540 [13a 9 3 800] ------- [3:0 6:0 29 6] [2 0] 1 0
r 1.254712716 _7_ AGT  --- 21 tcp 1540 [13a 7 2 800] ------- [2:0 7:0 30 7] [8 0] 1 0
s 1.254712716 _7_ AGT  --- 33 ack 40 [0 0 0 0] ------- [7:0 2:0 32 0] [8 0] 0 0
r 1.254712716 _7_ RTR  --- 33 ack 40 [0 0 0 0] ------- [7:0 2:0 32 0] [8 0] 0 0
s 1.254712716 _7_ RTR  --- 33 ack 40 [0 0 0 0] ------- [7:0 2:0 30 2] [8 0] 0 0
r 1.268539309 _7_ AGT  --- 23 tcp 1540 [13a 7 2 800] ------- [2:0 7:0 30 7] [9 0] 1 0
s 1.268539309 _7_ AGT  --- 34 ack 40 [0 0 0 0] ------- [7:0 2:0 32 0] [9 0] 0 0
r 1.268539309 _7_ RTR  --- 34 ack 40 [0 0 0 0] ------- [7:0 2:0 32 0] [9 0] 0 0
s 1.268539309 _7_ RTR  --- 34 ack 40 [0 0 0 0] ------- [7:0 2:0 30 2] [9 0] 0 0
r 1.270425254 _2_ AGT  --- 30 ack 40 [13a 2 7 800] ------- [7:0 2:0 30 2] [7 0] 1 0
s 1.270425254 _2_ AGT  --- 35 tcp 1540 [0 0 0 0] ------- [2:0 7:0 32 0] [15 0] 0 0
r 1.270425254 _2_ RTR  --- 35 tcp 1540 [0 0 0 0] ------- [2:0 7:0 32 0] [15 0] 0 0
s 1.270425254 _2_ AGT  --- 36 tcp 1540 [0 0 0 0] ------- [2:0 7:0 32 0] [16 0] 0 0
r 1.270425254 _2_ RTR  --- 36 tcp 1540 [0 0 0 0] ------- [2:0 7:0 32 0] [16 0] 0 0
s 1.270425254 _2_ RTR  --- 35 tcp 1540 [0 0 0 0] ------- [2:0 7:0 30 7] [15 0] 0 0
s 1.270425254 _2_ RTR  --- 36 tcp 1540 [0 0 0 0] ------- [2:0 7:0 30 7] [16 0] 0 0
r 1.284571199 _7_ AGT  --- 24 tcp 1540 [13a 7 2 800] ------- [2:0 7:0 30 7] [10 0] 1 0
s 1.284571199 _7_ AGT  --- 37 ack 40 [0 0 0 0] ------- [7:0 2:0 32 0] [10 0] 0 0
r 1.284571199 _7_ RTR  --- 37 ack 40 [0 0 0 0] ------- [7:0 2:0 32 0] [10 0] 0 0
s 1.284571199 _7_ RTR  --- 37 ack 40 [0 0 0 0] ------- [7:0 2:0 30 2] [10 0] 0 0
r 1.286577144 _2_ AGT  --- 33 ack 40 [13a 2 7 800] ------- [7:0 2:0 30 2] [8 0] 1 0
s 1.286577144 _2_ AGT  --- 38 tcp 1540 [0 0 0 0] ------- [2:0 7:0 32 0] [17 0] 0 0
r 1.286577144 _2_ RTR  --- 38 tcp 1540 [0 0 0 0] ------- [2:0 7:0 32 0] [17 0] 0 0
s 1.286577144 _2_ AGT  --- 39 tcp 1540 [0 0 0 0] ------- [2:0 7:0 32 0] [18 0] 0 0
r 1.286577144 _2_ RTR  --- 39 tcp 1540 [0 0 0 0] ------- [2:0 7:0 32 0] [18 0] 0 0
s 1.286577144 _2_ RTR  --- 38 tcp 1540 [0 0 0 0] ------- [2:0 7:0 30 7] [17 0] 0 0
s 1.286577144 _2_ RTR  --- 39 tcp 1540 [0 0 0 0] ------- [2:0 7:0 30 7] [18 0] 0 0
r 1.288403738 _2_ AGT  --- 34 ack 40 [13a 2 7 800] ------- [7:0 2:0 30 2] [9 0] 1 0
s 1.288403738 _2_ AGT  --- 40 tcp 1540 [0 0 0 0] ------- [2:0 7:0 32 0] [19 0] 0 0
r 1.288403738 _2_ RTR  --- 40 tcp 1540 [0 0 0 0] ------- [2:0 7:0 32 0] [19 0] 0 0
s 1.288403738 _2_ AGT  --- 41 tcp 1540 [0 0 0 0] ------- [2:0 7:0 32 0] [20 0] 0 0
r 1.288403738 _2_ RTR  --- 41 tcp 1540 [0 0 0 0] ------- [2:0 7:0 32 0] [20 0] 0 0
s 1.288403738 _2_ RTR  --- 40 tcp 1540 [0 0 0 0] ------- [2:0 7:0 30 7] [19 0] 0 0
s 1.288403738 _2_ RTR  --- 41 tcp 1540 [0 0 0 0] ------- [2:0 7:0 30 7] [20 0] 0 0
r 1.302289683 _7_ AGT  --- 25 tcp 1540 [13a 7 2 800] ------- [2:0 7:0 30 7] [11 0] 1 0
s 1.302289683 _7_ AGT  --- 42 ack 40 [0 0 0 0] ------- [7:0 2:0 32 0] [11 0] 0 0
r 1.302289683 _7_ RTR  --- 42 ack 40 [0 0 0 0] ------- [7:0 2:0 32 0] [11 0] 0 0
s 1.302289683 _7_ RTR  --- 42 ack 40 [0 0 0 0] ------- [7:0 2:0 30 2] [11 0] 0 0
r 1.304175628 _2_ AGT  --- 37 ack 40 [13a 2 7 800] ------- [7:0 2:0 30 2] [10 0] 1 0
s 1.304175628 _2_ AGT  --- 43 tcp 1540 [0 0 0 0] ------- [2:0 7:0 32 0] [21 0] 0 0
r 1.304175628 _2_ RTR  --- 43 tcp 1540 [0 0 0 0] ------- [2:0 7:0 32 0] [21 0] 0 0
s 1.304175628 _2_ AGT  --- 44 tcp 1540 [0 0 0 0] ------- [2:0 7:0 32 0] [22 0] 0 0
r 1.304175628 _2_ RTR  --- 44 tcp 1540 [0 0 0 0] ------- [2:0 7:0 32 0] [22 0] 0 0
s 1.304175628 _2_ RTR  --- 43 tcp 1540 [0 0 0 0] ------- [2:0 7:0 30 7] [21 0] 0 0
s 1.304175628 _2_ RTR  --- 44 tcp 1540 [0 0 0 0] ------- [2:0 7:0 30 7] [22 0] 0 0
r 1.318072105 _6_ AGT  --- 17 tcp 1540 [13a 6 9 800] ------- [3:0 6:0 29 6] [1 0] 2 0
s 1.318072105 _6_ AGT  --- 45 ack 40 [0 0 0 0] ------- [6:0 3:0 32 0] [1 0] 0 0
r 1.318072105 _6_ RTR  --- 45 ack 40 [0 0 0 0] ------- [6:0 3:0 32 0] [1 0] 0 0
s 1.318072105 _6_ RTR  --- 45 ack 40 [0 0 0 0] ------- [6:0 3:0 30 9] [1 0] 0 0
r 1.332138577 _7_ AGT  --- 26 tcp 1540 [13a 7 2 800] ------- [2:0 7:0 30 7] [12 0] 1 0
s 1.332138577 _7_ AGT  --- 46 ack 40 [0 0 0 0] ------- [7:0 2:0 32 0] [12 0] 0 0
r 1.332138577 _7_ RTR  --- 46 ack 40 [0 0 0 0] ------- [7:0 2:0 32 0] [12 0] 0 0
s 1.332138577 _7_ RTR  --- 46 ack 40 [0 0 0 0] ------- [7:0 2:0 30 2] [12 0] 0 0
r 1.334064522 _2_ AGT  --- 42 ack 40 [13a 2 7 800] ------- [7:0 2:0 30 2] [11 0] 1 0
s 1.334064522 _2_ AGT  --- 47 tcp 1540 [0 0 0 0] ------- [2:0 7:0 32 0] [23 0] 0 0
r 1.334064522 _2_ RTR  --- 47 tcp 1540 [0 0 0 0] ------- [2:0 7:0 32 0] [23 0] 0 0
s 1.334064522 _2_ AGT  --- 48 tcp 1540 [0 0 0 0] ------- [2:0 7:0 32 0] [24 0] 0 0
r 1.334064522 _2_ RTR  --- 48 tcp 1540 [0 0 0 0] ------- [2:0 7:0 32 0] [24 0] 0 0
s 1.334064522 _2_ RTR  --- 47 tcp 1540 [0 0 0 0] ------- [2:0 7:0 30 7] [23 0] 0 0
s 1.334064522 _2_ RTR  --- 48 tcp 1540 [0 0 0 0] ------- [2:0 7:0 30 7] [24 0] 0 0
r 1.347930468 _7_ AGT  --- 28 tcp 1540 [13a 7 2 800] ------- [2:0 7:0 30 7] [13 0] 1 0
s 1.347930468 _7_ AGT  --- 49 ack 40 [0 0 0 0] ------- [7:0 2:0 32 0] [13 0] 0 0
r 1.347930468 _7_ RTR  --- 49 ack 40 [0 0 0 0] ------- [7:0 2:0 32 0] [13 0] 0 0
s 1.347930468 _7_ RTR  --- 49 ack 40 [0 0 0 0] ------- [7:0 2:0 30 2] [13 0] 0 0
r 1.362162089 _9_ AGT  --- 31 tcp 1540 [13a 9 3 800] ------- [0:0 9:0 29 9] [1 0] 2 0
s 1.362162089 _9_ AGT  --- 50 ack 40 [0 0 0 0] ------- [9:0 0:0 32 0] [1 0] 0 0
r 1.362162089 _9_ RTR  --- 50 ack 40 [0 0 0 0] ------- [9:0 0:0 32 0] [1 0] 0 0
s 1.362162089 _9_ RTR  --- 50 ack 40 [0 0 0 0] ------- [9:0 0:0 30 3] [1 0] 0 0
r 1.376028571 _9_ AGT  --- 32 tcp 1540 [13a 9 3 800] ------- [0:0 9:0 29 9] [2 0] 2 0
s 1.376028571 _9_ AGT  --- 51 ack 40 [0 0 0 0] ------- [9:0 0:0 32 0] [2 0] 0 0
r 1.376028571 _9_ RTR  --- 51 ack 40 [0 0 0 0] ------- [9:0 0:0 32 0] [2 0] 0 0
s 1.376028571 _9_ RTR  --- 51 ack 40 [0 0 0 0] ------- [9:0 0:0 30 3] [2 0] 0 0
r 1.390045128 _7_ AGT  --- 29 tcp 1540 [13a 7 2 800] ------- [2:0 7:0 30 7] [14 0] 1 0
s 1.390045128 _7_ AGT  --- 52 ack 40 [0 0 0 0] ------- [7:0 2:0 32 0] [14 0] 0 0
r 1.390045128 _7_ RTR  --- 52 ack 40 [0 0 0 0] ------- [7:0 2:0 32 0] [14 0] 0 0
s 1.390045128 _7_ RTR  --- 52 ack 40 [0 0 0 0] ------- [7:0 2:0 30 2] [14 0] 0 0
r 1.391971074 _2_ AGT  --- 46 ack 40 [13a 2 7 800] ------- [7:0 2:0 30 2] [12 0] 1 0
s 1.391971074 _2_ AGT  --- 53 tcp 1540 [0 0 0 0] ------- [2:0 7:0 32 0] [25 0] 0 0
r 1.391971074 _2_ RTR  --- 53 tcp 1540 [0 0 0 0] ------- [2:0 7:0 32 0] [25 0] 0 0
s 1.391971074 _2_ AGT  --- 54 tcp 1540 [0 0 0 0] ------- [2:0 7:0 32 0] [26 0] 0 0
r 1.391971074 _2_ RTR  --- 54 tcp 1540 [0 0 0 0] ------- [2:0 7:0 32 0] [26 0] 0 0
s 1.391971074 _2_ RTR  --- 53 tcp 1540 [0 0 0 0] ------- [2:0 7:0 30 7] [25 0] 0 0
s 1.391971074 _2_ RTR  --- 54 tcp 1540 [0 0 0 0] ------- [2:0 7:0 30 7] [26 0] 0 0
r 1.393797668 _2_ AGT  --- 49 ack 40 [13a 2 7 800] ------- [7:0 2:0 30 2] [13 0] 1 0