s 0.111253547 _0_ AGT  --- 49 tcp 41 [0 0 0 0] ------- [0:0 9:0 32 0] [1 0] 0 0
r 0.111253547 _0_ RTR  --- 49 tcp 41 [0 0 0 0] ------- [0:0 9:0 32 0] [1 0] 0 0
s 0.111253547 _0_ AGT  --- 50 tcp 41 [0 0 0 0] ------- [0:0 9:0 32 0] [2 0] 0 0
r 0.111253547 _0_ RTR  --- 50 tcp 41 [0 0 0 0] ------- [0:0 9:0 32 0] [2 0] 0 0
s 0.111253547 _0_ RTR  --- 49 tcp 41 [0 0 0 0] ------- [0:0 9:0 30 6] [1 0] 0 0
s 0.111253547 _0_ RTR  --- 50 tcp 41 [0 0 0 0] ------- [0:0 9:0 30 6] [2 0] 0 0
r 0.113087527 _6_ RTR  --- 49 tcp 41 [13a 6 0 800] ------- [0:0 9:0 30 6] [1 0] 1 0
f 0.113087527 _6_ RTR  --- 49 tcp 41 [13a 6 0 800] ------- [0:0 9:0 29 4] [1 0] 1 0
r 0.115053397 _3_ AGT  --- 48 ack 40 [13a 3 6 800] ------- [6:0 3:0 30 3] [14 0] 1 0
s 0.115053397 _3_ AGT  --- 51 tcp 41 [0 0 0 0] ------- [3:0 6:0 32 0] [29 0] 0 0
r 0.115053397 _3_ RTR  --- 51 tcp 41 [0 0 0 0] ------- [3:0 6:0 32 0] [29 0] 0 0
s 0.115053397 _3_ AGT  --- 52 tcp 41 [0 0 0 0] ------- [3:0 6:0 32 0] [30 0] 0 0
r 0.115053397 _3_ RTR  --- 52 tcp 41 [0 0 0 0] ------- [3:0 6:0 32 0] [30 0] 0 0
s 0.115053397 _3_ RTR  --- 51 tcp 41 [0 0 0 0] ------- [3:0 6:0 30 6] [29 0] 0 0
s 0.115053397 _3_ RTR  --- 52 tcp 41 [0 0 0 0] ------- [3:0 6:0 30 6] [30 0] 0 0
r 0.116907267 _6_ AGT  --- 30 tcp 41 [13a 6 3 800] ------- [3:0 6:0 30 6] [15 0] 1 0
s 0.116907267 _6_ AGT  --- 53 ack 40 [0 0 0 0] ------- [6:0 3:0 32 0] [15 0] 0 0
r 0.116907267 _6_ RTR  --- 53 ack 40 [0 0 0 0] ------- [6:0 3:0 32 0] [15 0] 0 0
s 0.116907267 _6_ RTR  --- 53 ack 40 [0 0 0 0] ------- [6:0 3:0 30 3] [15 0] 0 0
r 0.119011907 _6_ RTR  --- 50 tcp 41 [13a 6 0 800] ------- [0:0 9:0 30 6] [2 0] 1 0
f 0.119011907 _6_ RTR  --- 50 tcp 41 [13a 6 0 800] ------- [0:0 9:0 29 4] [2 0] 1 0
r 0.120886003 _4_ RTR  --- 49 tcp 41 [13a 4 6 800] ------- [0:0 9:0 29 4] [1 0] 2 0
f 0.120886003 _4_ RTR  --- 49 tcp 41 [13a 4 6 800] ------- [0:0 9:0 28 9] [1 0] 2 0
r 0.122872572 _3_ AGT  --- 53 ack 40 [13a 3 6 800] ------- [6:0 3:0 30 3] [15 0] 1 0
s 0.122872572 _3_ AGT  --- 54 tcp 41 [0 0 0 0] ------- [3:0 6:0 32 0] [31 0] 0 0
r 0.122872572 _3_ RTR  --- 54 tcp 41 [0 0 0 0] ------- [3:0 6:0 32 0] [31 0] 0 0
s 0.122872572 _3_ AGT  --- 55 tcp 41 [0 0 0 0] ------- [3:0 6:0 32 0] [32 0] 0 0
r 0.122872572 _3_ RTR  --- 55 tcp 41 [0 0 0 0] ------- [3:0 6:0 32 0] [32 0] 0 0
s 0.122872572 _3_ RTR  --- 54 tcp 41 [0 0 0 0] ------- [3:0 6:0 30 6] [31 0] 0 0
s 0.122872572 _3_ RTR  --- 55 tcp 41 [0 0 0 0] ------- [3:0 6:0 30 6] [32 0] 0 0
r 0.124727291 _4_ RTR  --- 50 tcp 41 [13a 4 6 800] ------- [0:0 9:0 29 4] [2 0] 2 0
f 0.124727291 _4_ RTR  --- 50 tcp 41 [13a 4 6 800] ------- [0:0 9:0 28 9] [2 0] 2 0
r 0.126721636 _9_ AGT  --- 49 tcp 41 [13a 9 4 800] ------- [0:0 9:0 28 9] [1 0] 3 0
s 0.126721636 _9_ AGT  --- 56 ack 40 [0 0 0 0] ------- [9:0 0:0 32 0] [1 0] 0 0
r 0.126721636 _9_ RTR  --- 56 ack 40 [0 0 0 0] ------- [9:0 0:0 32 0] [1 0] 0 0
s 0.126721636 _9_ RTR  --- 56 ack 40 [0 0 0 0] ------- [9:0 0:0 30 4] [1 0] 0 0
r 0.128627981 _4_ RTR  --- 56 ack 40 [13a 4 9 800] ------- [9:0 0:0 30 4] [1 0] 1 0
f 0.128627981 _4_ RTR  --- 56 ack 40 [13a 4 9 800] ------- [9:0 0:0 29 6] [1 0] 1 0
r 0.130502326 _9_ AGT  --- 50 tcp 41 [13a 9 4 800] ------- [0:0 9:0 28 9] [2 0] 3 0
s 0.130502326 _9_ AGT  --- 57 ack 40 [0 0 0 0] ------- [9:0 0:0 32 0] [2 0] 0 0
r 0.130502326 _9_ RTR  --- 57 ack 40 [0 0 0 0] ------- [9:0 0:0 32 0] [2 0] 0 0
s 0.130502326 _9_ RTR  --- 57 ack 40 [0 0 0 0] ------- [9:0 0:0 30 4] [2 0] 0 0
r 0.132388670 _4_ RTR  --- 57 ack 40 [13a 4 9 800] ------- [9:0 0:0 30 4] [2 0] 1 0
f 0.132388670 _4_ RTR  --- 57 ack 40 [13a 4 9 800] ------- [9:0 0:0 29 6] [2 0] 1 0
r 0.134674766 _6_ RTR  --- 56 ack 40 [13a 6 4 800] ------- [9:0 0:0 29 6] [1 0] 2 0
f 0.134674766 _6_ RTR  --- 56 ack 40 [13a 6 4 800] ------- [9:0 0:0 28 0] [1 0] 2 0
r 0.136521561 _6_ RTR  --- 57 ack 40 [13a 6 4 800] ------- [9:0 0:0 29 6] [2 0] 2 0
f 0.136521561 _6_ RTR  --- 57 ack 40 [13a 6 4 800] ------- [9:0 0:0 28 0] [2 0] 2 0
r 0.138465612 _6_ AGT  --- 31 tcp 41 [13a 6 3 800] ------- [3:0 6:0 30 6] [16 0] 1 0
s 0.138465612 _6_ AGT  --- 58 ack 40 [0 0 0 0] ------- [6:0 3:0 32 0] [16 0] 0 0
r 0.138465612 _6_ RTR  --- 58 ack 40 [0 0 0 0] ------- [6:0 3:0 32 0] [16 0] 0 0
s 0.138465612 _6_ RTR  --- 58 ack 40 [0 0 0 0] ------- [6:0 3:0 30 3] [16 0] 0 0
r 0.140360105 _6_ AGT  --- 32 tcp 41 [13a 6 3 800] ------- [3:0 6:0 30 6] [17 0] 1 0
s 0.140360105 _6_ AGT  --- 59 ack 40 [0 0 0 0] ------- [6:0 3:0 32 0] [17 0] 0 0
r 0.140360105 _6_ RTR  --- 59 ack 40 [0 0 0 0] ------- [6:0 3:0 32 0] [17 0] 0 0
s 0.140360105 _6_ RTR  --- 59 ack 40 [0 0 0 0] ------- [6:0 3:0 30 3] [17 0] 0 0
r 0.142426085 _0_ AGT  --- 56 ack 40 [13a 0 6 800] ------- [9:0 0:0 28 0] [1 0] 3 0
s 0.142426085 _0_ AGT  --- 60 tcp 41 [0 0 0 0] ------- [0:0 9:0 32 0] [3 0] 0 0
r 0.142426085 _0_ RTR  --- 60 tcp 41 [0 0 0 0] ------- [0:0 9:0 32 0] [3 0] 0 0
s 0.142426085 _0_ AGT  --- 61 tcp 41 [0 0 0 0] ------- [0:0 9:0 32 0] [4 0] 0 0
r 0.142426085 _0_ RTR  --- 61 tcp 41 [0 0 0 0] ------- [0:0 9:0 32 0] [4 0] 0 0
s 0.142426085 _0_ RTR  --- 60 tcp 41 [0 0 0 0] ------- [0:0 9:0 30 6] [3 0] 0 0
s 0.142426085 _0_ RTR  --- 61 tcp 41 [0 0 0 0] ------- [0:0 9:0 30 6] [4 0] 0 0
r 0.144272725 _0_ AGT  --- 57 ack 40 [13a 0 6 800] ------- [9:0 0:0 28 0] [2 0] 3 0
s 0.144272725 _0_ AGT  --- 62 tcp 41 [0 0 0 0] ------- [0:0 9:0 32 0] [5 0] 0 0
r 0.144272725 _0_ RTR  --- 62 tcp 41 [0 0 0 0] ------- [0:0 9:0 32 0] [5 0] 0 0
s 0.144272725 _0_ AGT  --- 63 tcp 41 [0 0 0 0] ------- [0:0 9:0 32 0] [6 0] 0 0
r 0.144272725 _0_ RTR  --- 63 tcp 41 [0 0 0 0] ------- [0:0 9:0 32 0] [6 0] 0 0
s 0.144272725 _0_ RTR  --- 62 tcp 41 [0 0 0 0] ------- [0:0 9:0 30 6] [5 0] 0 0
s 0.144272725 _0_ RTR  --- 63 tcp 41 [0 0 0 0] ------- [0:0 9:0 30 6] [6 0] 0 0
r 0.146119256 _3_ AGT  --- 58 ack 40 [13a 3 6 800] ------- [6:0 3:0 30 3] [16 0] 1 0
s 0.146119256 _3_ AGT  --- 64 tcp 41 [0 0 0 0] ------- [3:0 6:0 32 0] [33 0] 0 0
r 0.146119256 _3_ RTR  --- 64 tcp 41 [0 0 0 0] ------- [3:0 6:0 32 0] [33 0] 0 0
s 0.146119256 _3_ AGT  --- 65 tcp 41 [0 0 0 0] ------- [3:0 6:0 32 0] [34 0] 0 0
r 0.146119256 _3_ RTR  --- 65 tcp 41 [0 0 0 0] ------- [3:0 6:0 32 0] [34 0] 0 0
s 0.146119256 _3_ RTR  --- 64 tcp 41 [0 0 0 0] ------- [3:0 6:0 30 6] [33 0] 0 0
s 0.146119256 _3_ RTR  --- 65 tcp 41 [0 0 0 0] ------- [3:0 6:0 30 6] [34 0] 0 0
r 0.147973126 _6_ AGT  --- 33 tcp 41 [13a 6 3 800] ------- [3:0 6:0 30 6] [18 0] 1 0
s 0.147973126 _6_ AGT  --- 66 ack 40 [0 0 0 0] ------- [6:0 3:0 32 0] [18 0] 0 0
r 0.147973126 _6_ RTR  --- 66 ack 40 [0 0 0 0] ------- [6:0 3:0 32 0] [18 0] 0 0
s 0.147973126 _6_ RTR  --- 66 ack 40 [0 0 0 0] ------- [6:0 3:0 30 3] [18 0] 0 0
r 0.149957766 _6_ RTR  --- 60 tcp 41 [13a 6 0 800] ------- [0:0 9:0 30 6] [3 0] 1 0
f 0.149957766 _6_ RTR  --- 60 tcp 41 [13a 6 0 800] ------- [0:0 9:0 29 4] [3 0] 1 0
r 0.152023636 _3_ AGT  --- 59 ack 40 [13a 3 6 800] ------- [6:0 3:0 30 3] [17 0] 1 0
s 0.152023636 _3_ AGT  --- 67 tcp 41 [0 0 0 0] ------- [3:0 6:0 32 0] [35 0] 0 0
r 0.152023636 _3_ RTR  --- 67 tcp 41 [0 0 0 0] ------- [3:0 6:0 32 0] [35 0] 0 0
s 0.152023636 _3_ AGT  --- 68 tcp 41 [0 0 0 0] ------- [3:0 6:0 32 0] [36 0] 0 0
r 0.152023636 _3_ RTR  --- 68 tcp 41 [0 0 0 0] ------- [3:0 6:0 32 0] [36 0] 0 0
s 0.152023636 _3_ RTR  --- 67 tcp 41 [0 0 0 0] ------- [3:0 6:0 30 6] [35 0] 0 0
s 0.152023636 _3_ RTR  --- 68 tcp 41 [0 0 0 0] ------- [3:0 6:0 30 6] [36 0] 0 0
r 0.153977506 _6_ AGT  --- 35 tcp 41 [13a 6 3 800] ------- [3:0 6:0 30 6] [19 0] 1 0
s 0.153977506 _6_ AGT  --- 69 ack 40 [0 0 0 0] ------- [6:0 3:0 32 0] [19 0] 0 0
r 0.153977506 _6_ RTR  --- 69 ack 40 [0 0 0 0] ------- [6:0 3:0 32 0] [19 0] 0 0
s 0.153977506 _6_ RTR  --- 69 ack 40 [0 0 0 0] ------- [6:0 3:0 30 3] [19 0] 0 0
r 0.156002146 _6_ RTR  --- 61 tcp 41 [13a 6 0 800] ------- [0:0 9:0 30 6] [4 0] 1 0
f 0.156002146 _6_ RTR  --- 61 tcp 41 [13a 6 0 800] ------- [0:0 9:0 29 4] [4 0] 1 0
r 0.158803959 _6_ AGT  --- 36 tcp 41 [13a 6 3 800] ------- [3:0 6:0 30 6] [20 0] 1 0
s 0.158803959 _6_ AGT  --- 70 ack 40 [0 0 0 0] ------- [6:0 3:0 32 0] [20 0] 0 0
r 0.158803959 _6_ RTR  --- 70 ack 40 [0 0 0 0] ------- [6:0 3:0 32 0] [20 0] 0 0
s 0.158803959 _6_ RTR  --- 70 ack 40 [0 0 0 0] ------- [6:0 3:0 30 3] [20 0] 0 0
r 0.160778452 _6_ AGT  --- 38 tcp 41 [13a 6 3 800] ------- [3:0 6:0 30 6] [21 0] 1 0
s 0.160778452 _6_ AGT  --- 71 ack 40 [0 0 0 0] ------- [6:0 3:0 32 0] [21 0] 0 0
r 0.160778452 _6_ RTR  --- 71 ack 40 [0 0 0 0] ------- [6:0 3:0 32 0] [21 0] 0 0
s 0.160778452 _6_ RTR  --- 71 ack 40 [0 0 0 0] ------- [6:0 3:0 30 3] [21 0] 0 0
r 0.162763092 _6_ RTR  --- 62 tcp 41 [13a 6 0 800] ------- [0:0 9:0 30 6] [5 0] 1 0
f 0.162763092 _6_ RTR  --- 62 tcp 41 [13a 6 0 800] ------- [0:0 9:0 29 4] [5 0] 1 0
r 0.164597733 _6_ RTR  --- 63 tcp 41 [13a 6 0 800] ------- [0:0 9:0 30 6] [6 0] 1 0
f 0.164597733 _6_ RTR  --- 63 tcp 41 [13a 6 0 800] ------- [0:0 9:0 29 4] [6 0] 1 0
r 0.166582226 _6_ AGT  --- 39 tcp 41 [13a 6 3 800] ------- [3:0 6:0 30 6] [22 0] 1 0
s 0.166582226 _6_ AGT  --- 72 ack 40 [0 0 0 0] ------- [6:0 3:0 32 0] [22 0] 0 0
r 0.166582226 _6_ RTR  --- 72 ack 40 [0 0 0 0] ------- [6:0 3:0 32 0] [22 0] 0 0
s 0.166582226 _6_ RTR  --- 72 ack 40 [0 0 0 0] ------- [6:0 3:0 30 3] [22 0] 0 0
r 0.168416719 _6_ AGT  --- 41 tcp 41 [13a 6 3 800] ------- [3:0 6:0 30 6] [23 0] 1 0
s 0.168416719 _6_ AGT  --- 73 ack 40 [0 0 0 0] ------- [6:0 3:0 32 0] [23 0] 0 0
r 0.168416719 _6_ RTR  --- 73 ack 40 [0 0 0 0] ------- [6:0 3:0 32 0] [23 0] 0 0
s 0.168416719 _6_ RTR  --- 73 ack 40 [0 0 0 0] ------- [6:0 3:0 30 3] [23 0] 0 0
r 0.170034805 _8_ RTR  --- 0 AODV 48 [0 ffffffff 7 800] ------- [7:255 -1:255 28 0] [0x2 3 1 [5 0] [4 4]] (REQUEST)
r 0.170034880 _9_ RTR  --- 0 AODV 48 [0 ffffffff 7 800] ------- [7:255 -1:255 28 0] [0x2 3 1 [5 0] [4 4]] (REQUEST)
s 0.170621784 _8_ RTR  --- 0 AODV 48 [0 ffffffff 7 800] ------- [8:255 -1:255 27 0] [0x2 4 1 [5 0] [4 4]] (REQUEST)
r 0.172059792 _6_ AGT  --- 42 tcp 41 [13a 6 3 800] ------- [3:0 6:0 30 6] [24 0] 1 0
s 0.172059792 _6_ AGT  --- 74 ack 40 [0 0 0 0] ------- [6:0 3:0 32 0] [24 0] 0 0
r 0.172059792 _6_ RTR  --- 74 ack 40 [0 0 0 0] ------- [6:0 3:0 32 0] [24 0] 0 0
s 0.172059792 _6_ RTR  --- 74 ack 40 [0 0 0 0] ------- [6:0 3:0 30 3] [24 0] 0 0
r 0.173905662 _3_ AGT  --- 66 ack 40 [13a 3 6 800] ------- [6:0 3:0 30 3] [18 0] 1 0
s 0.173905662 _3_ AGT  --- 75 tcp 41 [0 0 0 0] ------- [3:0 6:0 32 0] [37 0] 0 0
r 0.173905662 _3_ RTR  --- 75 tcp 41 [0 0 0 0] ------- [3:0 6:0 32 0] [37 0] 0 0
s 0.173905662 _3_ AGT  --- 76 tcp 41 [0 0 0 0] ------- [3:0 6:0 32 0] [38 0] 0 0
r 0.173905662 _3_ RTR  --- 76 tcp 41 [0 0 0 0] ------- [3:0 6:0 32 0] [38 0] 0 0
s 0.173905662 _3_ RTR  --- 75 tcp 41 [0 0 0 0] ------- [3:0 6:0 30 6] [37 0] 0 0
s 0.173905662 _3_ RTR  --- 76 tcp 41 [0 0 0 0] ------- [3:0 6:0 30 6] [38 0] 0 0
r 0.175880382 _4_ RTR  --- 60 tcp 41 [13a 4 6 800] ------- [0:0 9:0 29 4] [3 0] 2 0
f 0.175880382 _4_ RTR  --- 60 tcp 41 [13a 4 6 800] ------- [0:0 9:0 28 9] [3 0] 2 0
r 0.177954726 _9_ AGT  --- 60 tcp 41 [13a 9 4 800] ------- [0:0 9:0 28 9] [3 0] 3 0
s 0.177954726 _9_ AGT  --- 77 ack 40 [0 0 0 0] ------- [9:0 0:0 32 0] [3 0] 0 0
r 0.177954726 _9_ RTR  --- 77 ack 40 [0 0 0 0] ------- [9:0 0:0 32 0] [3 0] 0 0
s 0.177954726 _9_ RTR  --- 77 ack 40 [0 0 0 0] ------- [9:0 0:0 30 4] [3 0] 0 0
r 0.179881071 _4_ RTR  --- 77 ack 40 [13a 4 9 800] ------- [9:0 0:0 30 4] [3 0] 1 0
f 0.179881071 _4_ RTR  --- 77 ack 40 [13a 4 9 800] ------- [9:0 0:0 29 6] [3 0] 1 0
r 0.181787167 _6_ RTR  --- 77 ack 40 [13a 6 4 800] ------- [9:0 0:0 29 6] [3 0] 2 0
f 0.181787167 _6_ RTR  --- 77 ack 40 [13a 6 4 800] ------- [9:0 0:0 28 0] [3 0] 2 0
r 0.183873037 _3_ AGT  --- 69 ack 40 [13a 3 6 800] ------- [6:0 3:0 30 3] [19 0] 1 0
s 0.183873037 _3_ AGT  --- 78 tcp 41 [0 0 0 0] ------- [3:0 6:0 32 0] [39 0] 0 0
r 0.183873037 _3_ RTR  --- 78 tcp 41 [0 0 0 0] ------- [3:0 6:0 32 0] [39 0] 0 0
s 0.183873037 _3_ RTR  --- 78 tcp 41 [0 0 0 0] ------- [3:0 6:0 30 6] [39 0] 0 0
r 0.185886907 _6_ AGT  --- 44 tcp 41 [13a 6 3 800] ------- [3:0 6:0 30 6] [25 0] 1 0
s 0.185886907 _6_ AGT  --- 79 ack 40 [0 0 0 0] ------- [6:0 3:0 32 0] [25 0] 0 0
r 0.185886907 _6_ RTR  --- 79 ack 40 [0 0 0 0] ------- [6:0 3:0 32 0] [25 0] 0 0
s 0.185886907 _6_ RTR  --- 79 ack 40 [0 0 0 0] ------- [6:0 3:0 30 3] [25 0] 0 0
r 0.187961401 _6_ AGT  --- 45 tcp 41 [13a 6 3 800] ------- [3:0 6:0 30 6] [26 0] 1 0
s 0.187961401 _6_ AGT  --- 80 ack 40 [0 0 0 0] ------- [6:0 3:0 32 0] [26 0] 0 0
r 0.187961401 _6_ RTR  --- 80 ack 40 [0 0 0 0] ------- [6:0 3:0 32 0] [26 0] 0 0
s 0.187961401 _6_ RTR  --- 80 ack 40 [0 0 0 0] ------- [6:0 3:0 30 3] [26 0] 0 0
r 0.189795894 _6_ AGT  --- 46 tcp 41 [13a 6 3 800] ------- [3:0 6:0 30 6] [27 0] 1 0
s 0.189795894 _6_ AGT  --- 81 ack 40 [0 0 0 0] ------- [6:0 3:0 32 0] [27 0] 0 0
r 0.189795894 _6_ RTR  --- 81 ack 40 [0 0 0 0] ------- [6:0 3:0 32 0] [27 0] 0 0
s 0.189795894 _6_ RTR  --- 81 ack 40 [0 0 0 0] ------- [6:0 3:0 30 3] [27 0] 0 0
r 0.191709990 _4_ RTR  --- 61 tcp 41 [13a 4 6 800] ------- [0:0 9:0 29 4] [4 0] 2 0
f 0.191709990 _4_ RTR  --- 61 tcp 41 [13a 4 6 800] ------- [0:0 9:0 28 9] [4 0] 2 0
r 0.193696559 _3_ AGT  --- 70 ack 40 [13a 3 6 800] ------- [6:0 3:0 30 3] [20 0] 1 0
s 0.193696559 _3_ AGT  --- 82 tcp 41 [0 0 0 0] ------- [3:0 6:0 32 0] [40 0] 0 0
r 0.193696559 _3_ RTR  --- 82 tcp 41 [0 0 0 0] ------- [3:0 6:0 32 0] [40 0] 0 0
s 0.193696559 _3_ RTR  --- 82 tcp 41 [0 0 0 0] ------- [3:0 6:0 30 6] [40 0] 0 0
r 0.195590429 _6_ AGT  --- 47 tcp 41 [13a 6 3 800] ------- [3:0 6:0 30 6] [28 0] 1 0
s 0.195590429 _6_ AGT  --- 83 ack 40 [0 0 0 0] ------- [6:0 3:0 32 0] [28 0] 0 0
r 0.195590429 _6_ RTR  --- 83 ack 40 [0 0 0 0] ------- [6:0 3:0 32 0] [28 0] 0 0
s 0.195590429 _6_ RTR  --- 83 ack 40 [0 0 0 0] ------- [6:0 3:0 30 3] [28 0] 0 0
r 0.197675030 _9_ AGT  --- 61 tcp 41 [13a 9 4 800] ------- [0:0 9:0 28 9] [4 0] 3 0
s 0.197675030 _9_ AGT  --- 84 ack 40 [0 0 0 0] ------- [9:0 0:0 32 0] [4 0] 0 0
r 0.197675030 _9_ RTR  --- 84 ack 40 [0 0 0 0] ------- [9:0 0:0 32 0] [4 0] 0 0
s 0.197675030 _9_ RTR  --- 84 ack 40 [0 0 0 0] ------- [9:0 0:0 30 4] [4 0] 0 0
r 0.199641375 _4_ RTR  --- 84 ack 40 [13a 4 9 800] ------- [9:0 0:0 30 4] [4 0] 1 0
f 0.199641375 _4_ RTR  --- 84 ack 40 [13a 4 9 800] ------- [9:0 0:0 29 6] [4 0] 1 0
r 0.201717843 _3_ AGT  --- 71 ack 40 [13a 3 6 800] ------- [6:0 3:0 30 3] [21 0] 1 0
s 0.201717843 _3_ AGT  --- 85 tcp 41 [0 0 0 0] ------- [3:0 6:0 32 0] [41 0] 0 0
r 0.201717843 _3_ RTR  --- 85 tcp 41 [0 0 0 0] ------- [3:0 6:0 32 0] [41 0] 0 0
s 0.201717843 _3_ RTR  --- 85 tcp 41 [0 0 0 0] ------- [3:0 6:0 30 6] [41 0] 0 0
r 0.203592562 _4_ RTR  --- 62 tcp 41 [13a 4 6 800] ------- [0:0 9:0 29 4] [5 0] 2 0
f 0.203592562 _4_ RTR  --- 62 tcp 41 [13a 4 6 800] ------- [0:0 9:0 28 9] [5 0] 2 0
r 0.205578658 _6_ RTR  --- 84 ack 40 [13a 6 4 800] ------- [9:0 0:0 29 6] [4 0] 2 0
f 0.205578658 _6_ RTR  --- 84 ack 40 [13a 6 4 800] ------- [9:0 0:0 28 0] [4 0] 2 0
r 0.207752755 _4_ RTR  --- 63 tcp 41 [13a 4 6 800] ------- [0:0 9:0 29 4] [6 0] 2 0
f 0.207752755 _4_ RTR  --- 63 tcp 41 [13a 4 6 800] ------- [0:0 9:0 28 9] [6 0] 2 0
r 0.209579323 _3_ AGT  --- 72 ack 40 [13a 3 6 800] ------- [6:0 3:0 30 3] [22 0] 1 0
s 0.209579323 _3_ AGT  --- 86 tcp 41 [0 0 0 0] ------- [3:0 6:0 32 0] [42 0] 0 0
r 0.209579323 _3_ RTR  --- 86 tcp 41 [0 0 0 0] ------- [3:0 6:0 32 0] [42 0] 0 0
s 0.209579323 _3_ RTR  --- 86 tcp 41 [0 0 0 0] ------- [3:0 6:0 30 6] [42 0] 0 0
r 0.211453193 _6_ AGT  --- 51 tcp 41 [13a 6 3 800] ------- [3:0 6:0 30 6] [29 0] 1 0
s 0.211453193 _6_ AGT  --- 87 ack 40 [0 0 0 0] ------- [6:0 3:0 32 0] [29 0] 0 0
r 0.211453193 _6_ RTR  --- 87 ack 40 [0 0 0 0] ------- [6:0 3:0 32 0] [29 0] 0 0
s 0.211453193 _6_ RTR  --- 87 ack 40 [0 0 0 0] ------- [6:0 3:0 30 3] [29 0] 0 0
r 0.213319063 _3_ AGT  --- 73 ack 40 [13a 3 6 800] ------- [6:0 3:0 30 3] [23 0] 1 0
s 0.213319063 _3_ AGT  --- 88 tcp 41 [0 0 0 0] ------- [3:0 6:0 32 0] [43 0] 0 0
r 0.213319063 _3_ RTR  --- 88 tcp 41 [0 0 0 0] ------- [3:0 6:0 32 0] [43 0] 0 0
s 0.213319063 _3_ RTR  --- 88 tcp 41 [0 0 0 0] ------- [3:0 6:0 30 6] [43 0] 0 0
r 0.215445557 _3_ AGT  --- 74 ack 40 [13a 3 6 800] ------- [6:0 3:0 30 3] [24 0] 1 0
s 0.215445557 _3_ AGT  --- 89 tcp 41 [0 0 0 0] ------- [3:0 6:0 32 0] [44 0] 0 0
r 0.215445557 _3_ RTR  --- 89 tcp 41 [0 0 0 0] ------- [3:0 6:0 32 0] [44 0] 0 0
s 0.215445557 _3_ RTR  --- 89 tcp 41 [0 0 0 0] ------- [3:0 6:0 30 6] [44 0] 0 0
r 0.217499427 _6_ AGT  --- 52 tcp 41 [13a 6 3 800] ------- [3:0 6:0 30 6] [30 0] 1 0
s 0.217499427 _6_ AGT  --- 90 ack 40 [0 0 0 0] ------- [6:0 3:0 32 0] [30 0] 0 0
r 0.217499427 _6_ RTR  --- 90 ack 40 [0 0 0 0] ------- [6:0 3:0 32 0] [30 0] 0 0
s 0.217499427 _6_ RTR  --- 90 ack 40 [0 0 0 0] ------- [6:0 3:0 30 3] [30 0] 0 0
r 0.219404028 _9_ AGT  --- 62 tcp 41 [13a 9 4 800] ------- [0:0 9:0 28 9] [5 0] 3 0
s 0.219404028 _9_ AGT  --- 91 ack 40 [0 0 0 0] ------- [9:0 0:0 32 0] [5 0] 0 0
r 0.219404028 _9_ RTR  --- 91 ack 40 [0 0 0 0] ------- [9:0 0:0 32 0] [5 0] 0 0
s 0.219404028 _9_ RTR  --- 91 ack 40 [0 0 0 0] ------- [9:0 0:0 30 4] [5 0] 0 0
r 0.221430372 _4_ RTR  --- 91 ack 40 [13a 4 9 800] ------- [9:0 0:0 30 4] [5 0] 1 0
f 0.221430372 _4_ RTR  --- 91 ack 40 [13a 4 9 800] ------- [9:0 0:0 29 6] [5 0] 1 0
r 0.223386950 _0_ AGT  --- 77 ack 40 [13a 0 6 800] ------- [9:0 0:0 28 0] [3 0] 3 0
s 0.223386950 _0_ AGT  --- 92 tcp 41 [0 0 0 0] ------- [0:0 9:0 32 0] [7 0] 0 0
r 0.223386950 _0_ RTR  --- 92 tcp 41 [0 0 0 0] ------- [0:0 9:0 32 0] [7 0] 0 0
s 0.223386950 _0_ AGT  --- 93 tcp 41 [0 0 0 0] ------- [0:0 9:0 32 0] [8 0] 0 0
r 0.223386950 _0_ RTR  --- 93 tcp 41 [0 0 0 0] ------- [0:0 9:0 32 0] [8 0] 0 0
s 0.223386950 _0_ RTR  --- 92 tcp 41 [0 0 0 0] ------- [0:0 9:0 30 6] [7 0] 0 0
s 0.223386950 _0_ RTR  --- 93 tcp 41 [0 0 0 0] ------- [0:0 9:0 30 6] [8 0] 0 0
r 0.225713480 _3_ AGT  --- 79 ack 40 [13a 3 6 800] ------- [6:0 3:0 30 3] [25 0] 1 0
s 0.225713480 _3_ AGT  --- 94 tcp 41 [0 0 0 0] ------- [3:0 6:0 32 0] [45 0] 0 0
r 0.225713480 _3_ RTR  --- 94 tcp 41 [0 0 0 0] ------- [3:0 6:0 32 0] [45 0] 0 0
s 0.225713480 _3_ RTR  --- 94 tcp 41 [0 0 0 0] ------- [3:0 6:0 30 6] [45 0] 0 0
r 0.227619974 _3_ AGT  --- 80 ack 40 [13a 3 6 800] ------- [6:0 3:0 30 3] [26 0] 1 0
s 0.227619974 _3_ AGT  --- 95 tcp 41 [0 0 0 0] ------- [3:0 6:0 32 0] [46 0] 0 0
r 0.227619974 _3_ RTR  --- 95 tcp 41 [0 0 0 0] ------- [3:0 6:0 32 0] [46 0] 0 0
s 0.227619974 _3_ RTR  --- 95 tcp 41 [0 0 0 0] ------- [3:0 6:0 30 6] [46 0] 0 0
r 0.229513844 _6_ AGT  --- 54 tcp 41 [13a 6 3 800] ------- [3:0 6:0 30 6] [31 0] 1 0
s 0.229513844 _6_ AGT  --- 96 ack 40 [0 0 0 0] ------- [6:0 3:0 32 0] [31 0] 0 0
r 0.229513844 _6_ RTR  --- 96 ack 40 [0 0 0 0] ------- [6:0 3:0 32 0] [31 0] 0 0
s 0.229513844 _6_ RTR  --- 96 ack 40 [0 0 0 0] ------- [6:0 3:0 30 3] [31 0] 0 0
r 0.231348337 _6_ AGT  --- 55 tcp 41 [13a 6 3 800] ------- [3:0 6:0 30 6] [32 0] 1 0
s 0.231348337 _6_ AGT  --- 97 ack 40 [0 0 0 0] ------- [6:0 3:0 32 0] [32 0] 0 0
r 0.231348337 _6_ RTR  --- 97 ack 40 [0 0 0 0] ------- [6:0 3:0 32 0] [32 0] 0 0
s 0.231348337 _6_ RTR  --- 97 ack 40 [0 0 0 0] ------- [6:0 3:0 30 3] [32 0] 0 0
r 0.233252977 _6_ RTR  --- 92 tcp 41 [13a 6 0 800] ------- [0:0 9:0 30 6] [7 0] 1 0
f 0.233252977 _6_ RTR  --- 92 tcp 41 [13a 6 0 800] ------- [0:0 9:0 29 4] [7 0] 1 0
r 0.235157679 _9_ AGT  --- 63 tcp 41 [13a 9 4 800] ------- [0:0 9:0 28 9] [6 0] 3 0
s 0.235157679 _9_ AGT  --- 98 ack 40 [0 0 0 0] ------- [9:0 0:0 32 0] [6 0] 0 0
r 0.235157679 _9_ RTR  --- 98 ack 40 [0 0 0 0] ------- [9:0 0:0 32 0] [6 0] 0 0
s 0.235157679 _9_ RTR  --- 98 ack 40 [0 0 0 0] ------- [9:0 0:0 30 4] [6 0] 0 0
r 0.237044556 _6_ RTR  --- 91 ack 40 [13a 6 4 800] ------- [9:0 0:0 29 6] [5 0] 2 0
f 0.237044556 _6_ RTR  --- 91 ack 40 [13a 6 4 800] ------- [9:0 0:0 28 0] [5 0] 2 0
r 0.239188854 _6_ RTR  --- 93 tcp 41 [13a 6 0 800] ------- [0:0 9:0 30 6] [8 0] 1 0
f 0.239188854 _6_ RTR  --- 93 tcp 41 [13a 6 0 800] ------- [0:0 9:0 29 4] [8 0] 1 0
r 0.241134724 _3_ AGT  --- 81 ack 40 [13a 3 6 800] ------- [6:0 3:0 30 3] [27 0] 1 0
s 0.241134724 _3_ AGT  --- 99 tcp 41 [0 0 0 0] ------- [3:0 6:0 32 0] [47 0] 0 0
r 0.241134724 _3_ RTR  --- 99 tcp 41 [0 0 0 0] ------- [3:0 6:0 32 0] [47 0] 0 0
s 0.241134724 _3_ RTR  --- 99 tcp 41 [0 0 0 0] ------- [3:0 6:0 30 6] [47 0] 0 0
r 0.243081218 _3_ AGT  --- 83 ack 40 [13a 3 6 800] ------- [6:0 3:0 30 3] [28 0] 1 0
s 0.243081218 _3_ AGT  --- 100 tcp 41 [0 0 0 0] ------- [3:0 6:0 32 0] [48 0] 0 0
r 0.243081218 _3_ RTR  --- 100 tcp 41 [0 0 0 0] ------- [3:0 6:0 32 0] [48 0] 0 0
s 0.243081218 _3_ RTR  --- 100 tcp 41 [0 0 0 0] ------- [3:0 6:0 30 6] [48 0] 0 0
r 0.244955088 _6_ AGT  --- 64 tcp 41 [13a 6 3 800] ------- [3:0 6:0 30 6] [33 0] 1 0
s 0.244955088 _6_ AGT  --- 101 ack 40 [0 0 0 0] ------- [6:0 3:0 32 0] [33 0] 0 0
r 0.244955088 _6_ RTR  --- 101 ack 40 [0 0 0 0] ------- [6:0 3:0 32 0] [33 0] 0 0
s 0.244955088 _6_ RTR  --- 101 ack 40 [0 0 0 0] ------- [6:0 3:0 30 3] [33 0] 0 0
r 0.246809581 _6_ AGT  --- 65 tcp 41 [13a 6 3 800] ------- [3:0 6:0 30 6] [34 0] 1 0
s 0.246809581 _6_ AGT  --- 102 ack 40 [0 0 0 0] ------- [6:0 3:0 32 0] [34 0] 0 0
r 0.246809581 _6_ RTR  --- 102 ack 40 [0 0 0 0] ------- [6:0 3:0 32 0] [34 0] 0 0
s 0.246809581 _6_ RTR  --- 102 ack 40 [0 0 0 0] ------- [6:0 3:0 30 3] [34 0] 0 0
r 0.248644074 _6_ AGT  --- 67 tcp 41 [13a 6 3 800] ------- [3:0 6:0 30 6] [35 0] 1 0
s 0.248644074 _6_ AGT  --- 103 ack 40 [0 0 0 0] ------- [6:0 3:0 32 0] [35 0] 0 0
r 0.248644074 _6_ RTR  --- 103 ack 40 [0 0 0 0] ------- [6:0 3:0 32 0] [35 0] 0 0
s 0.248644074 _6_ RTR  --- 103 ack 40 [0 0 0 0] ------- [6:0 3:0 30 3] [35 0] 0 0
r 0.250558568 _6_ AGT  --- 68 tcp 41 [13a 6 3 800] ------- [3:0 6:0 30 6] [36 0] 1 0
s 0.250558568 _6_ AGT  --- 104 ack 40 [0 0 0 0] ------- [6:0 3:0 32 0] [36 0] 0 0
r 0.250558568 _6_ RTR  --- 104 ack 40 [0 0 0 0] ------- [6:0 3:0 32 0] [36 0] 0 0
s 0.250558568 _6_ RTR  --- 104 ack 40 [0 0 0 0] ------- [6:0 3:0 30 3] [36 0] 0 0
r 0.252704548 _0_ AGT  --- 84 ack 40 [13a 0 6 800] ------- [9:0 0:0 28 0] [4 0] 3 0
s 0.252704548 _0_ AGT  --- 105 tcp 41 [0 0 0 0] ------- [0:0 9:0 32 0] [9 0] 0 0
r 0.252704548 _0_ RTR  --- 105 tcp 41 [0 0 0 0] ------- [0:0 9:0 32 0] [9 0] 0 0
s 0.252704548 _0_ AGT  --- 106 tcp 41 [0 0 0 0] ------- [0:0 9:0 32 0] [10 0] 0 0
r 0.252704548 _0_ RTR  --- 106 tcp 41 [0 0 0 0] ------- [0:0 9:0 32 0] [10 0] 0 0
s 0.252704548 _0_ RTR  --- 105 tcp 41 [0 0 0 0] ------- [0:0 9:0 30 6] [9 0] 0 0
s 0.252704548 _0_ RTR  --- 106 tcp 41 [0 0 0 0] ------- [0:0 9:0 30 6] [10 0] 0 0
r 0.254871078 _3_ AGT  --- 87 ack 40 [13a 3 6 800] ------- [6:0 3:0 30 3] [29 0] 1 0
s 0.254871078 _3_ AGT  --- 107 tcp 41 [0 0 0 0] ------- [3:0 6:0 32 0] [49 0] 0 0
r 0.254871078 _3_ RTR  --- 107 tcp 41 [0 0 0 0] ------- [3:0 6:0 32 0] [49 0] 0 0
s 0.254871078 _3_ RTR  --- 107 tcp 41 [0 0 0 0] ------- [3:0 6:0 30 6] [49 0] 0 0
r 0.256857571 _3_ AGT  --- 90 ack 40 [13a 3 6 800] ------- [6:0 3:0 30 3] [30 0] 1 0
s 0.256857571 _3_ AGT  --- 108 tcp 41 [0 0 0 0] ------- [3:0 6:0 32 0] [50 0] 0 0
r 0.256857571 _3_ RTR  --- 108 tcp 41 [0 0 0 0] ------- [3:0 6:0 32 0] [50 0] 0 0
s 0.256857571 _3_ RTR  --- 108 tcp 41 [0 0 0 0] ------- [3:0 6:0 30 6] [50 0] 0 0
r 0.258791441 _6_ AGT  --- 75 tcp 41 [13a 6 3 800] ------- [3:0 6:0 30 6] [37 0] 1 0
s 0.258791441 _6_ AGT  --- 109 ack 40 [0 0 0 0] ------- [6:0 3:0 32 0] [37 0] 0 0
r 0.258791441 _6_ RTR  --- 109 ack 40 [0 0 0 0] ------- [6:0 3:0 32 0] [37 0] 0 0
s 0.258791441 _6_ RTR  --- 109 ack 40 [0 0 0 0] ------- [6:0 3:0 30 3] [37 0] 0 0
r 0.260725935 _6_ AGT  --- 76 tcp 41 [13a 6 3 800] ------- [3:0 6:0 30 6] [38 0] 1 0
s 0.260725935 _6_ AGT  --- 110 ack 40 [0 0 0 0] ------- [6:0 3:0 32 0] [38 0] 0 0
r 0.260725935 _6_ RTR  --- 110 ack 40 [0 0 0 0] ------- [6:0 3:0 32 0] [38 0] 0 0
s 0.260725935 _6_ RTR  --- 110 ack 40 [0 0 0 0] ------- [6:0 3:0 30 3] [38 0] 0 0
r 0.262690575 _6_ RTR  --- 105 tcp 41 [13a 6 0 800] ------- [0:0 9:0 30 6] [9 0] 1 0
f 0.262690575 _6_ RTR  --- 105 tcp 41 [13a 6 0 800] ------- [0:0 9:0 29 4] [9 0] 1 0
r 0.264576445 _3_ AGT  --- 96 ack 40 [13a 3 6 800] ------- [6:0 3:0 30 3] [31 0] 1 0
s 0.264576445 _3_ AGT  --- 111 tcp 41 [0 0 0 0] ------- [3:0 6:0 32 0] [51 0] 0 0
r 0.264576445 _3_ RTR  --- 111 tcp 41 [0 0 0 0] ------- [3:0 6:0 32 0] [51 0] 0 0
s 0.264576445 _3_ RTR  --- 111 tcp 41 [0 0 0 0] ------- [3:0 6:0 30 6] [51 0] 0 0
r 0.266442938 _3_ AGT  --- 97 ack 40 [13a 3 6 800] ------- [6:0 3:0 30 3] [32 0] 1 0
s 0.266442938 _3_ AGT  --- 112 tcp 41 [0 0 0 0] ------- [3:0 6:0 32 0] [52 0] 0 0
r 0.266442938 _3_ RTR  --- 112 tcp 41 [0 0 0 0] ------- [3:0 6:0 32 0] [52 0] 0 0
s 0.266442938 _3_ RTR  --- 112 tcp 41 [0 0 0 0] ------- [3:0 6:0 30 6] [52 0] 0 0
r 0.268336808 _6_ AGT  --- 78 tcp 41 [13a 6 3 800] ------- [3:0 6:0 30 6] [39 0] 1 0
s 0.268336808 _6_ AGT  --- 113 ack 40 [0 0 0 0] ------- [6:0 3:0 32 0] [39 0] 0 0
r 0.268336808 _6_ RTR  --- 113 ack 40 [0 0 0 0] ------- [6:0 3:0 32 0] [39 0] 0 0
s 0.268336808 _6_ RTR  --- 113 ack 40 [0 0 0 0] ------- [6:0 3:0 30 3] [39 0] 0 0
r 0.270210904 _4_ RTR  --- 92 tcp 41 [13a 4 6 800] ------- [0:0 9:0 29 4] [7 0] 2 0
f 0.270210904 _4_ RTR  --- 92 tcp 41 [13a 4 6 800] ------- [0:0 9:0 28 9] [7 0] 2 0
r 0.272105249 _9_ AGT  --- 92 tcp 41 [13a 9 4 800] ------- [0:0 9:0 28 9] [7 0] 3 0
s 0.272105249 _9_ AGT  --- 114 ack 40 [0 0 0 0] ------- [9:0 0:0 32 0] [7 0] 0 0
r 0.272105249 _9_ RTR  --- 114 ack 40 [0 0 0 0] ------- [9:0 0:0 32 0] [7 0] 0 0
s 0.272105249 _9_ RTR  --- 114 ack 40 [0 0 0 0] ------- [9:0 0:0 30 4] [7 0] 0 0
r 0.274251594 _4_ RTR  --- 98 ack 40 [13a 4 9 800] ------- [9:0 0:0 30 4] [6 0] 1 0
f 0.274251594 _4_ RTR  --- 98 ack 40 [13a 4 9 800] ------- [9:0 0:0 29 6] [6 0] 1 0
r 0.276118720 _4_ RTR  --- 114 ack 40 [13a 4 9 800] ------- [9:0 0:0 30 4] [7 0] 1 0
f 0.276118720 _4_ RTR  --- 114 ack 40 [13a 4 9 800] ------- [9:0 0:0 29 6] [7 0] 1 0
r 0.278184816 _6_ RTR  --- 98 ack 40 [13a 6 4 800] ------- [9:0 0:0 29 6] [6 0] 2 0
f 0.278184816 _6_ RTR  --- 98 ack 40 [13a 6 4 800] ------- [9:0 0:0 28 0] [6 0] 2 0
r 0.280290796 _0_ AGT  --- 91 ack 40 [13a 0 6 800] ------- [9:0 0:0 28 0] [5 0] 3 0
s 0.280290796 _0_ AGT  --- 115 tcp 41 [0 0 0 0] ------- [0:0 9:0 32 0] [11 0] 0 0
r 0.280290796 _0_ RTR  --- 115 tcp 41 [0 0 0 0] ------- [0:0 9:0 32 0] [11 0] 0 0
s 0.280290796 _0_ AGT  --- 116 tcp 41 [0 0 0 0] ------- [0:0 9:0 32 0] [12 0] 0 0
r 0.280290796 _0_ RTR  --- 116 tcp 41 [0 0 0 0] ------- [0:0 9:0 32 0] [12 0] 0 0
s 0.280290796 _0_ RTR  --- 115 tcp 41 [0 0 0 0] ------- [0:0 9:0 30 6] [11 0] 0 0
s 0.280290796 _0_ RTR  --- 116 tcp 41 [0 0 0 0] ------- [0:0 9:0 30 6] [12 0] 0 0
r 0.282364776 _6_ RTR  --- 106 tcp 41 [13a 6 0 800] ------- [0:0 9:0 30 6] [10 0] 1 0
f 0.282364776 _6_ RTR  --- 106 tcp 41 [13a 6 0 800] ------- [0:0 9:0 29 4] [10 0] 1 0
r 0.284318872 _4_ RTR  --- 93 tcp 41 [13a 4 6 800] ------- [0:0 9:0 29 4] [8 0] 2 0
f 0.284318872 _4_ RTR  --- 93 tcp 41 [13a 4 6 800] ------- [0:0 9:0 28 9] [8 0] 2 0
r 0.286164969 _6_ RTR  --- 114 ack 40 [13a 6 4 800] ------- [9:0 0:0 29 6] [7 0] 2 0
f 0.286164969 _6_ RTR  --- 114 ack 40 [13a 6 4 800] ------- [9:0 0:0 28 0] [7 0] 2 0
r 0.288089267 _6_ RTR  --- 115 tcp 41 [13a 6 0 800] ------- [0:0 9:0 30 6] [11 0] 1 0
f 0.288089267 _6_ RTR  --- 115 tcp 41 [13a 6 0 800] ------- [0:0 9:0 29 4] [11 0] 1 0
r 0.290023907 _6_ RTR  --- 116 tcp 41 [13a 6 0 800] ------- [0:0 9:0 30 6] [12 0] 1 0
f 0.290023907 _6_ RTR  --- 116 tcp 41 [13a 6 0 800] ------- [0:0 9:0 29 4] [12 0] 1 0
r 0.291988400 _6_ AGT  --- 82 tcp 41 [13a 6 3 800] ------- [3:0 6:0 30 6] [40 0] 1 0
s 0.291988400 _6_ AGT  --- 117 ack 40 [0 0 0 0] ------- [6:0 3:0 32 0] [40 0] 0 0
r 0.291988400 _6_ RTR  --- 117 ack 40 [0 0 0 0] ------- [6:0 3:0 32 0] [40 0] 0 0
s 0.291988400 _6_ RTR  --- 117 ack 40 [0 0 0 0] ------- [6:0 3:0 30 3] [40 0] 0 0
r 0.293834270 _3_ AGT  --- 101 ack 40 [13a 3 6 800] ------- [6:0 3:0 30 3] [33 0] 1 0
s 0.293834270 _3_ AGT  --- 118 tcp 41 [0 0 0 0] ------- [3:0 6:0 32 0] [53 0] 0 0
r 0.293834270 _3_ RTR  --- 118 tcp 41 [0 0 0 0] ------- [3:0 6:0 32 0] [53 0] 0 0
s 0.293834270 _3_ RTR  --- 118 tcp 41 [0 0 0 0] ------- [3:0 6:0 30 6] [53 0] 0 0
r 0.296955937 _9_ AGT  --- 93 tcp 41 [13a 9 4 800] ------- [0:0 9:0 28 9] [8 0] 3 0
s 0.296955937 _9_ AGT  --- 119 ack 40 [0 0 0 0] ------- [9:0 0:0 32 0] [8 0] 0 0
r 0.296955937 _9_ RTR  --- 119 ack 40 [0 0 0 0] ------- [9:0 0:0 32 0] [8 0] 0 0
s 0.296955937 _9_ RTR  --- 119 ack 40 [0 0 0 0] ------- [9:0 0:0 30 4] [8 0] 0 0
r 0.299202282 _4_ RTR  --- 119 ack 40 [13a 4 9 800] ------- [9:0 0:0 30 4] [8 0] 1 0
f 0.299202282 _4_ RTR  --- 119 ack 40 [13a 4 9 800] ------- [9:0 0:0 29 6] [8 0] 1 0
r 0.301128378 _6_ RTR  --- 119 ack 40 [13a 6 4 800] ------- [9:0 0:0 29 6] [8 0] 2 0
f 0.301128378 _6_ RTR  --- 119 ack 40 [13a 6 4 800] ------- [9:0 0:0 28 0] [8 0] 2 0
r 0.303154248 _3_ AGT  --- 102 ack 40 [13a 3 6 800] ------- [6:0 3:0 30 3] [34 0] 1 0
s 0.303154248 _3_ AGT  --- 120 tcp 41 [0 0 0 0] ------- [3:0 6:0 32 0] [54 0] 0 0
r 0.303154248 _3_ RTR  --- 120 tcp 41 [0 0 0 0] ------- [3:0 6:0 32 0] [54 0] 0 0
s 0.303154248 _3_ RTR  --- 120 tcp 41 [0 0 0 0] ------- [3:0 6:0 30 6] [54 0] 0 0
r 0.305000741 _3_ AGT  --- 103 ack 40 [13a 3 6 800] ------- [6:0 3:0 30 3] [35 0] 1 0
s 0.305000741 _3_ AGT  --- 121 tcp 41 [0 0 0 0] ------- [3:0 6:0 32 0] [55 0] 0 0
r 0.305000741 _3_ RTR  --- 121 tcp 41 [0 0 0 0] ------- [3:0 6:0 32 0] [55 0] 0 0
s 0.305000741 _3_ RTR  --- 121 tcp 41 [0 0 0 0] ------- [3:0 6:0 30 6] [55 0] 0 0
r 0.306894611 _6_ AGT  --- 85 tcp 41 [13a 6 3 800] ------- [3:0 6:0 30 6] [41 0] 1 0
s 0.306894611 _6_ AGT  --- 122 ack 40 [0 0 0 0] ------- [6:0 3:0 32 0] [41 0] 0 0
r 0.306894611 _6_ RTR  --- 122 ack 40 [0 0 0 0] ------- [6:0 3:0 32 0] [41 0] 0 0
s 0.306894611 _6_ RTR  --- 122 ack 40 [0 0 0 0] ------- [6:0 3:0 30 3] [41 0] 0 0
r 0.309109105 _6_ AGT  --- 86 tcp 41 [13a 6 3 800] ------- [3:0 6:0 30 6] [42 0] 1 0
s 0.309109105 _6_ AGT  --- 123 ack 40 [0 0 0 0] ------- [6:0 3:0 32 0] [42 0] 0 0
r 0.309109105 _6_ RTR  --- 123 ack 40 [0 0 0 0] ------- [6:0 3:0 32 0] [42 0] 0 0