s 0.062220677 _5_ AGT  --- 9 ack 40 [0 0 0 0] ------- [5:0 4:0 32 0] [1 0] 0 0
r 0.062220677 _5_ RTR  --- 9 ack 40 [0 0 0 0] ------- [5:0 4:0 32 0] [1 0] 0 0
s 0.062220677 _5_ RTR  --- 9 ack 40 [0 0 0 0] ------- [5:0 4:0 30 7] [1 0] 0 0
r 0.063995227 _2_ RTR  --- 6 ack 40 [13a 2 9 800] ------- [9:0 0:0 30 2] [0 0] 1 0
f 0.063995227 _2_ RTR  --- 6 ack 40 [13a 2 9 800] ------- [9:0 0:0 29 0] [0 0] 1 0
r 0.066309249 _0_ AGT  --- 6 ack 40 [13a 0 2 800] ------- [9:0 0:0 29 0] [0 0] 2 0
s 0.066309249 _0_ AGT  --- 10 tcp 41 [0 0 0 0] ------- [0:0 9:0 32 0] [1 0] 0 0
r 0.066309249 _0_ RTR  --- 10 tcp 41 [0 0 0 0] ------- [0:0 9:0 32 0] [1 0] 0 0
s 0.066309249 _0_ AGT  --- 11 tcp 41 [0 0 0 0] ------- [0:0 9:0 32 0] [2 0] 0 0
r 0.066309249 _0_ RTR  --- 11 tcp 41 [0 0 0 0] ------- [0:0 9:0 32 0] [2 0] 0 0
s 0.066309249 _0_ RTR  --- 10 tcp 41 [0 0 0 0] ------- [0:0 9:0 30 2] [1 0] 0 0
s 0.066309249 _0_ RTR  --- 11 tcp 41 [0 0 0 0] ------- [0:0 9:0 30 2] [2 0] 0 0
r 0.068333646 _5_ AGT  --- 8 tcp 41 [13a 5 7 800] ------- [4:0 5:0 29 5] [2 0] 2 0
s 0.068333646 _5_ AGT  --- 12 ack 40 [0 0 0 0] ------- [5:0 4:0 32 0] [2 0] 0 0
r 0.068333646 _5_ RTR  --- 12 ack 40 [0 0 0 0] ------- [5:0 4:0 32 0] [2 0] 0 0
s 0.068333646 _5_ RTR  --- 12 ack 40 [0 0 0 0] ------- [5:0 4:0 30 7] [2 0] 0 0
r 0.070734797 _9_ RTR  --- 0 AODV 44 [13a 9 6 800] ------- [6:255 3:255 30 9] [0x4 1 [6 4] 10.000000] (REPLY)
f 0.070734797 _9_ RTR  --- 0 AODV 44 [13a 9 6 800] ------- [6:255 3:255 29 2] [0x4 2 [6 4] 10.000000] (REPLY)
r 0.072652490 _2_ RTR  --- 0 AODV 44 [13a 2 9 800] ------- [6:255 3:255 29 2] [0x4 2 [6 4] 10.000000] (REPLY)
f 0.072652490 _2_ RTR  --- 0 AODV 44 [13a 2 9 800] ------- [6:255 3:255 28 3] [0x4 3 [6 4] 10.000000] (REPLY)
r 0.077619936 _2_ RTR  --- 10 tcp 41 [13a 2 0 800] ------- [0:0 9:0 30 2] [1 0] 1 0
f 0.077619936 _2_ RTR  --- 10 tcp 41 [13a 2 0 800] ------- [0:0 9:0 29 9] [1 0] 1 0
r 0.079475072 _2_ RTR  --- 11 tcp 41 [13a 2 0 800] ------- [0:0 9:0 30 2] [2 0] 1 0
f 0.079475072 _2_ RTR  --- 11 tcp 41 [13a 2 0 800] ------- [0:0 9:0 29 9] [2 0] 1 0
r 0.081532055 _3_ RTR  --- 0 AODV 44 [13a 3 2 800] ------- [6:255 3:255 28 3] [0x4 3 [6 4] 10.000000] (REPLY)
s 0.081532055 _3_ RTR  --- 3 tcp 40 [0 0 0 0] ------- [3:0 6:0 30 2] [0 0] 0 0
r 0.083737038 _2_ RTR  --- 3 tcp 40 [13a 2 3 800] ------- [3:0 6:0 30 2] [0 0] 1 0
f 0.083737038 _2_ RTR  --- 3 tcp 40 [13a 2 3 800] ------- [3:0 6:0 29 9] [0 0] 1 0
r 0.085670731 _9_ AGT  --- 10 tcp 41 [13a 9 2 800] ------- [0:0 9:0 29 9] [1 0] 2 0
s 0.085670731 _9_ AGT  --- 13 ack 40 [0 0 0 0] ------- [9:0 0:0 32 0] [1 0] 0 0
r 0.085670731 _9_ RTR  --- 13 ack 40 [0 0 0 0] ------- [9:0 0:0 32 0] [1 0] 0 0
s 0.085670731 _9_ RTR  --- 13 ack 40 [0 0 0 0] ------- [9:0 0:0 30 2] [1 0] 0 0
r 0.087676424 _2_ RTR  --- 13 ack 40 [13a 2 9 800] ------- [9:0 0:0 30 2] [1 0] 1 0
f 0.087676424 _2_ RTR  --- 13 ack 40 [13a 2 9 800] ------- [9:0 0:0 29 0] [1 0] 1 0
r 0.089890117 _9_ AGT  --- 11 tcp 41 [13a 9 2 800] ------- [0:0 9:0 29 9] [2 0] 2 0
s 0.089890117 _9_ AGT  --- 14 ack 40 [0 0 0 0] ------- [9:0 0:0 32 0] [2 0] 0 0
r 0.089890117 _9_ RTR  --- 14 ack 40 [0 0 0 0] ------- [9:0 0:0 32 0] [2 0] 0 0
s 0.089890117 _9_ RTR  --- 14 ack 40 [0 0 0 0] ------- [9:0 0:0 30 2] [2 0] 0 0
r 0.091855810 _2_ RTR  --- 14 ack 40 [13a 2 9 800] ------- [9:0 0:0 30 2] [2 0] 1 0
f 0.091855810 _2_ RTR  --- 14 ack 40 [13a 2 9 800] ------- [9:0 0:0 29 0] [2 0] 1 0
r 0.093781503 _9_ RTR  --- 3 tcp 40 [13a 9 2 800] ------- [3:0 6:0 29 9] [0 0] 2 0
f 0.093781503 _9_ RTR  --- 3 tcp 40 [13a 9 2 800] ------- [3:0 6:0 28 6] [0 0] 2 0
r 0.095608419 _0_ AGT  --- 13 ack 40 [13a 0 2 800] ------- [9:0 0:0 29 0] [1 0] 2 0
s 0.095608419 _0_ AGT  --- 15 tcp 41 [0 0 0 0] ------- [0:0 9:0 32 0] [3 0] 0 0
r 0.095608419 _0_ RTR  --- 15 tcp 41 [0 0 0 0] ------- [0:0 9:0 32 0] [3 0] 0 0
s 0.095608419 _0_ AGT  --- 16 tcp 41 [0 0 0 0] ------- [0:0 9:0 32 0] [4 0] 0 0
r 0.095608419 _0_ RTR  --- 16 tcp 41 [0 0 0 0] ------- [0:0 9:0 32 0] [4 0] 0 0
s 0.095608419 _0_ RTR  --- 15 tcp 41 [0 0 0 0] ------- [0:0 9:0 30 2] [3 0] 0 0
s 0.095608419 _0_ RTR  --- 16 tcp 41 [0 0 0 0] ------- [0:0 9:0 30 2] [4 0] 0 0
r 0.097226651 _9_ RTR  --- 0 AODV 48 [0 ffffffff 6 800] ------- [6:255 -1:255 27 0] [0x2 4 1 [8 0] [1 4]] (REQUEST)
r 0.099697567 _0_ AGT  --- 14 ack 40 [13a 0 2 800] ------- [9:0 0:0 29 0] [2 0] 2 0
s 0.099697567 _0_ AGT  --- 17 tcp 41 [0 0 0 0] ------- [0:0 9:0 32 0] [5 0] 0 0
r 0.099697567 _0_ RTR  --- 17 tcp 41 [0 0 0 0] ------- [0:0 9:0 32 0] [5 0] 0 0
s 0.099697567 _0_ AGT  --- 18 tcp 41 [0 0 0 0] ------- [0:0 9:0 32 0] [6 0] 0 0
r 0.099697567 _0_ RTR  --- 18 tcp 41 [0 0 0 0] ------- [0:0 9:0 32 0] [6 0] 0 0
s 0.099697567 _0_ RTR  --- 17 tcp 41 [0 0 0 0] ------- [0:0 9:0 30 2] [5 0] 0 0
s 0.099697567 _0_ RTR  --- 18 tcp 41 [0 0 0 0] ------- [0:0 9:0 30 2] [6 0] 0 0
r 0.101671918 _2_ RTR  --- 15 tcp 41 [13a 2 0 800] ------- [0:0 9:0 30 2] [3 0] 1 0
f 0.101671918 _2_ RTR  --- 15 tcp 41 [13a 2 0 800] ------- [0:0 9:0 29 9] [3 0] 1 0
r 0.103647054 _2_ RTR  --- 16 tcp 41 [13a 2 0 800] ------- [0:0 9:0 30 2] [4 0] 1 0
f 0.103647054 _2_ RTR  --- 16 tcp 41 [13a 2 0 800] ------- [0:0 9:0 29 9] [4 0] 1 0
r 0.106568315 _9_ AGT  --- 15 tcp 41 [13a 9 2 800] ------- [0:0 9:0 29 9] [3 0] 2 0
s 0.106568315 _9_ AGT  --- 19 ack 40 [0 0 0 0] ------- [9:0 0:0 32 0] [3 0] 0 0
r 0.106568315 _9_ RTR  --- 19 ack 40 [0 0 0 0] ------- [9:0 0:0 32 0] [3 0] 0 0
s 0.106568315 _9_ RTR  --- 19 ack 40 [0 0 0 0] ------- [9:0 0:0 30 2] [3 0] 0 0
r 0.108402572 _9_ AGT  --- 16 tcp 41 [13a 9 2 800] ------- [0:0 9:0 29 9] [4 0] 2 0
s 0.108402572 _9_ AGT  --- 20 ack 40 [0 0 0 0] ------- [9:0 0:0 32 0] [4 0] 0 0
r 0.108402572 _9_ RTR  --- 20 ack 40 [0 0 0 0] ------- [9:0 0:0 32 0] [4 0] 0 0
s 0.108402572 _9_ RTR  --- 20 ack 40 [0 0 0 0] ------- [9:0 0:0 30 2] [4 0] 0 0
r 0.110408265 _2_ RTR  --- 19 ack 40 [13a 2 9 800] ------- [9:0 0:0 30 2] [3 0] 1 0
f 0.110408265 _2_ RTR  --- 19 ack 40 [13a 2 9 800] ------- [9:0 0:0 29 0] [3 0] 1 0
r 0.112454617 _0_ AGT  --- 19 ack 40 [13a 0 2 800] ------- [9:0 0:0 29 0] [3 0] 2 0
s 0.112454617 _0_ AGT  --- 21 tcp 41 [0 0 0 0] ------- [0:0 9:0 32 0] [7 0] 0 0
r 0.112454617 _0_ RTR  --- 21 tcp 41 [0 0 0 0] ------- [0:0 9:0 32 0] [7 0] 0 0
s 0.112454617 _0_ AGT  --- 22 tcp 41 [0 0 0 0] ------- [0:0 9:0 32 0] [8 0] 0 0
r 0.112454617 _0_ RTR  --- 22 tcp 41 [0 0 0 0] ------- [0:0 9:0 32 0] [8 0] 0 0
s 0.112454617 _0_ RTR  --- 21 tcp 41 [0 0 0 0] ------- [0:0 9:0 30 2] [7 0] 0 0
s 0.112454617 _0_ RTR  --- 22 tcp 41 [0 0 0 0] ------- [0:0 9:0 30 2] [8 0] 0 0
r 0.116655857 _2_ RTR  --- 20 ack 40 [13a 2 9 800] ------- [9:0 0:0 30 2] [4 0] 1 0
f 0.116655857 _2_ RTR  --- 20 ack 40 [13a 2 9 800] ------- [9:0 0:0 29 0] [4 0] 1 0
r 0.118600654 _2_ RTR  --- 17 tcp 41 [13a 2 0 800] ------- [0:0 9:0 30 2] [5 0] 1 0
f 0.118600654 _2_ RTR  --- 17 tcp 41 [13a 2 0 800] ------- [0:0 9:0 29 9] [5 0] 1 0
r 0.120487006 _0_ AGT  --- 20 ack 40 [13a 0 2 800] ------- [9:0 0:0 29 0] [4 0] 2 0
s 0.120487006 _0_ AGT  --- 23 tcp 41 [0 0 0 0] ------- [0:0 9:0 32 0] [9 0] 0 0
r 0.120487006 _0_ RTR  --- 23 tcp 41 [0 0 0 0] ------- [0:0 9:0 32 0] [9 0] 0 0
s 0.120487006 _0_ AGT  --- 24 tcp 41 [0 0 0 0] ------- [0:0 9:0 32 0] [10 0] 0 0
r 0.120487006 _0_ RTR  --- 24 tcp 41 [0 0 0 0] ------- [0:0 9:0 32 0] [10 0] 0 0
s 0.120487006 _0_ RTR  --- 23 tcp 41 [0 0 0 0] ------- [0:0 9:0 30 2] [9 0] 0 0
s 0.120487006 _0_ RTR  --- 24 tcp 41 [0 0 0 0] ------- [0:0 9:0 30 2] [10 0] 0 0
r 0.122461483 _9_ AGT  --- 17 tcp 41 [13a 9 2 800] ------- [0:0 9:0 29 9] [5 0] 2 0
s 0.122461483 _9_ AGT  --- 25 ack 40 [0 0 0 0] ------- [9:0 0:0 32 0] [5 0] 0 0
r 0.122461483 _9_ RTR  --- 25 ack 40 [0 0 0 0] ------- [9:0 0:0 32 0] [5 0] 0 0
s 0.122461483 _9_ RTR  --- 25 ack 40 [0 0 0 0] ------- [9:0 0:0 30 2] [5 0] 0 0
r 0.124687456 _6_ AGT  --- 3 tcp 40 [13a 6 9 800] ------- [3:0 6:0 28 6] [0 0] 3 0
s 0.124687456 _6_ AGT  --- 26 ack 40 [0 0 0 0] ------- [6:0 3:0 32 0] [0 0] 0 0
r 0.124687456 _6_ RTR  --- 26 ack 40 [0 0 0 0] ------- [6:0 3:0 32 0] [0 0] 0 0
s 0.124687456 _6_ RTR  --- 26 ack 40 [0 0 0 0] ------- [6:0 3:0 30 9] [0 0] 0 0
D 0.125062646 _5_ RTR  CBK 9 ack 40 [13a 7 5 800] ------- [5:0 4:0 30 7] [1 0] 0 0
D 0.125062646 _5_ RTR  CBK 12 ack 40 [0 7 5 800] ------- [5:0 4:0 30 7] [2 0] 0 0
s 0.125062646 _5_ RTR  --- 0 AODV 32 [0 0 0 0] ------- [5:255 -1:255 1 0] [0x8 1 [4 0] 0.000000] (ERROR)
r 0.126553807 _2_ RTR  --- 25 ack 40 [13a 2 9 800] ------- [9:0 0:0 30 2] [5 0] 1 0
f 0.126553807 _2_ RTR  --- 25 ack 40 [13a 2 9 800] ------- [9:0 0:0 29 0] [5 0] 1 0
r 0.128520159 _0_ AGT  --- 25 ack 40 [13a 0 2 800] ------- [9:0 0:0 29 0] [5 0] 2 0
s 0.128520159 _0_ AGT  --- 27 tcp 41 [0 0 0 0] ------- [0:0 9:0 32 0] [11 0] 0 0
r 0.128520159 _0_ RTR  --- 27 tcp 41 [0 0 0 0] ------- [0:0 9:0 32 0] [11 0] 0 0
s 0.128520159 _0_ AGT  --- 28 tcp 41 [0 0 0 0] ------- [0:0 9:0 32 0] [12 0] 0 0
r 0.128520159 _0_ RTR  --- 28 tcp 41 [0 0 0 0] ------- [0:0 9:0 32 0] [12 0] 0 0
s 0.128520159 _0_ RTR  --- 27 tcp 41 [0 0 0 0] ------- [0:0 9:0 30 2] [11 0] 0 0
s 0.128520159 _0_ RTR  --- 28 tcp 41 [0 0 0 0] ------- [0:0 9:0 30 2] [12 0] 0 0
r 0.130654511 _2_ RTR  --- 18 tcp 41 [13a 2 0 800] ------- [0:0 9:0 30 2] [6 0] 1 0
f 0.130654511 _2_ RTR  --- 18 tcp 41 [13a 2 0 800] ------- [0:0 9:0 29 9] [6 0] 1 0
r 0.132789646 _2_ RTR  --- 21 tcp 41 [13a 2 0 800] ------- [0:0 9:0 30 2] [7 0] 1 0
f 0.132789646 _2_ RTR  --- 21 tcp 41 [13a 2 0 800] ------- [0:0 9:0 29 9] [7 0] 1 0
r 0.134883339 _9_ AGT  --- 18 tcp 41 [13a 9 2 800] ------- [0:0 9:0 29 9] [6 0] 2 0
s 0.134883339 _9_ AGT  --- 29 ack 40 [0 0 0 0] ------- [9:0 0:0 32 0] [6 0] 0 0
r 0.134883339 _9_ RTR  --- 29 ack 40 [0 0 0 0] ------- [9:0 0:0 32 0] [6 0] 0 0
s 0.134883339 _9_ RTR  --- 29 ack 40 [0 0 0 0] ------- [9:0 0:0 30 2] [6 0] 0 0
r 0.137029032 _2_ RTR  --- 29 ack 40 [13a 2 9 800] ------- [9:0 0:0 30 2] [6 0] 1 0
f 0.137029032 _2_ RTR  --- 29 ack 40 [13a 2 9 800] ------- [9:0 0:0 29 0] [6 0] 1 0
r 0.138993829 _2_ RTR  --- 22 tcp 41 [13a 2 0 800] ------- [0:0 9:0 30 2] [8 0] 1 0
f 0.138993829 _2_ RTR  --- 22 tcp 41 [13a 2 0 800] ------- [0:0 9:0 29 9] [8 0] 1 0
r 0.140867522 _9_ AGT  --- 21 tcp 41 [13a 9 2 800] ------- [0:0 9:0 29 9] [7 0] 2 0
s 0.140867522 _9_ AGT  --- 30 ack 40 [0 0 0 0] ------- [9:0 0:0 32 0] [7 0] 0 0
r 0.140867522 _9_ RTR  --- 30 ack 40 [0 0 0 0] ------- [9:0 0:0 32 0] [7 0] 0 0
s 0.140867522 _9_ RTR  --- 30 ack 40 [0 0 0 0] ------- [9:0 0:0 30 2] [7 0] 0 0
r 0.142774438 _0_ AGT  --- 29 ack 40 [13a 0 2 800] ------- [9:0 0:0 29 0] [6 0] 2 0
s 0.142774438 _0_ AGT  --- 31 tcp 41 [0 0 0 0] ------- [0:0 9:0 32 0] [13 0] 0 0
r 0.142774438 _0_ RTR  --- 31 tcp 41 [0 0 0 0] ------- [0:0 9:0 32 0] [13 0] 0 0
s 0.142774438 _0_ AGT  --- 32 tcp 41 [0 0 0 0] ------- [0:0 9:0 32 0] [14 0] 0 0
r 0.142774438 _0_ RTR  --- 32 tcp 41 [0 0 0 0] ------- [0:0 9:0 32 0] [14 0] 0 0
s 0.142774438 _0_ RTR  --- 31 tcp 41 [0 0 0 0] ------- [0:0 9:0 30 2] [13 0] 0 0
s 0.142774438 _0_ RTR  --- 32 tcp 41 [0 0 0 0] ------- [0:0 9:0 30 2] [14 0] 0 0
r 0.145088790 _2_ RTR  --- 23 tcp 41 [13a 2 0 800] ------- [0:0 9:0 30 2] [9 0] 1 0
f 0.145088790 _2_ RTR  --- 23 tcp 41 [13a 2 0 800] ------- [0:0 9:0 29 9] [9 0] 1 0
r 0.146923925 _2_ RTR  --- 24 tcp 41 [13a 2 0 800] ------- [0:0 9:0 30 2] [10 0] 1 0
f 0.146923925 _2_ RTR  --- 24 tcp 41 [13a 2 0 800] ------- [0:0 9:0 29 9] [10 0] 1 0
r 0.148877618 _9_ AGT  --- 22 tcp 41 [13a 9 2 800] ------- [0:0 9:0 29 9] [8 0] 2 0
s 0.148877618 _9_ AGT  --- 33 ack 40 [0 0 0 0] ------- [9:0 0:0 32 0] [8 0] 0 0
r 0.148877618 _9_ RTR  --- 33 ack 40 [0 0 0 0] ------- [9:0 0:0 32 0] [8 0] 0 0
s 0.148877618 _9_ RTR  --- 33 ack 40 [0 0 0 0] ------- [9:0 0:0 30 2] [8 0] 0 0
r 0.150873894 _9_ RTR  --- 26 ack 40 [13a 9 6 800] ------- [6:0 3:0 30 9] [0 0] 1 0
f 0.150873894 _9_ RTR  --- 26 ack 40 [13a 9 6 800] ------- [6:0 3:0 29 2] [0 0] 1 0
r 0.152799587 _2_ RTR  --- 30 ack 40 [13a 2 9 800] ------- [9:0 0:0 30 2] [7 0] 1 0
f 0.152799587 _2_ RTR  --- 30 ack 40 [13a 2 9 800] ------- [9:0 0:0 29 0] [7 0] 1 0
r 0.154685844 _2_ RTR  --- 33 ack 40 [13a 2 9 800] ------- [9:0 0:0 30 2] [8 0] 1 0
f 0.154685844 _2_ RTR  --- 33 ack 40 [13a 2 9 800] ------- [9:0 0:0 29 0] [8 0] 1 0
r 0.156579537 _9_ AGT  --- 23 tcp 41 [13a 9 2 800] ------- [0:0 9:0 29 9] [9 0] 2 0
s 0.156579537 _9_ AGT  --- 34 ack 40 [0 0 0 0] ------- [9:0 0:0 32 0] [9 0] 0 0
r 0.156579537 _9_ RTR  --- 34 ack 40 [0 0 0 0] ------- [9:0 0:0 32 0] [9 0] 0 0
s 0.156579537 _9_ RTR  --- 34 ack 40 [0 0 0 0] ------- [9:0 0:0 30 2] [9 0] 0 0
r 0.158645230 _2_ RTR  --- 26 ack 40 [13a 2 9 800] ------- [6:0 3:0 29 2] [0 0] 2 0
f 0.158645230 _2_ RTR  --- 26 ack 40 [13a 2 9 800] ------- [6:0 3:0 28 3] [0 0] 2 0
r 0.160591487 _2_ RTR  --- 34 ack 40 [13a 2 9 800] ------- [9:0 0:0 30 2] [9 0] 1 0
f 0.160591487 _2_ RTR  --- 34 ack 40 [13a 2 9 800] ------- [9:0 0:0 29 0] [9 0] 1 0
r 0.162465180 _9_ AGT  --- 24 tcp 41 [13a 9 2 800] ------- [0:0 9:0 29 9] [10 0] 2 0
s 0.162465180 _9_ AGT  --- 35 ack 40 [0 0 0 0] ------- [9:0 0:0 32 0] [10 0] 0 0
r 0.162465180 _9_ RTR  --- 35 ack 40 [0 0 0 0] ------- [9:0 0:0 32 0] [10 0] 0 0
s 0.162465180 _9_ RTR  --- 35 ack 40 [0 0 0 0] ------- [9:0 0:0 30 2] [10 0] 0 0
r 0.164312096 _0_ AGT  --- 30 ack 40 [13a 0 2 800] ------- [9:0 0:0 29 0] [7 0] 2 0
s 0.164312096 _0_ AGT  --- 36 tcp 41 [0 0 0 0] ------- [0:0 9:0 32 0] [15 0] 0 0
r 0.164312096 _0_ RTR  --- 36 tcp 41 [0 0 0 0] ------- [0:0 9:0 32 0] [15 0] 0 0
s 0.164312096 _0_ AGT  --- 37 tcp 41 [0 0 0 0] ------- [0:0 9:0 32 0] [16 0] 0 0
r 0.164312096 _0_ RTR  --- 37 tcp 41 [0 0 0 0] ------- [0:0 9:0 32 0] [16 0] 0 0
s 0.164312096 _0_ RTR  --- 36 tcp 41 [0 0 0 0] ------- [0:0 9:0 30 2] [15 0] 0 0
s 0.164312096 _0_ RTR  --- 37 tcp 41 [0 0 0 0] ------- [0:0 9:0 30 2] [16 0] 0 0
r 0.166139232 _0_ AGT  --- 33 ack 40 [13a 0 2 800] ------- [9:0 0:0 29 0] [8 0] 2 0
s 0.166139232 _0_ AGT  --- 38 tcp 41 [0 0 0 0] ------- [0:0 9:0 32 0] [17 0] 0 0
r 0.166139232 _0_ RTR  --- 38 tcp 41 [0 0 0 0] ------- [0:0 9:0 32 0] [17 0] 0 0
s 0.166139232 _0_ AGT  --- 39 tcp 41 [0 0 0 0] ------- [0:0 9:0 32 0] [18 0] 0 0
r 0.166139232 _0_ RTR  --- 39 tcp 41 [0 0 0 0] ------- [0:0 9:0 32 0] [18 0] 0 0
s 0.166139232 _0_ RTR  --- 38 tcp 41 [0 0 0 0] ------- [0:0 9:0 30 2] [17 0] 0 0
s 0.166139232 _0_ RTR  --- 39 tcp 41 [0 0 0 0] ------- [0:0 9:0 30 2] [18 0] 0 0
r 0.168044999 _3_ AGT  --- 26 ack 40 [13a 3 2 800] ------- [6:0 3:0 28 3] [0 0] 3 0
s 0.168044999 _3_ AGT  --- 40 tcp 41 [0 0 0 0] ------- [3:0 6:0 32 0] [1 0] 0 0
r 0.168044999 _3_ RTR  --- 40 tcp 41 [0 0 0 0] ------- [3:0 6:0 32 0] [1 0] 0 0
s 0.168044999 _3_ AGT  --- 41 tcp 41 [0 0 0 0] ------- [3:0 6:0 32 0] [2 0] 0 0
r 0.168044999 _3_ RTR  --- 41 tcp 41 [0 0 0 0] ------- [3:0 6:0 32 0] [2 0] 0 0
s 0.168044999 _3_ RTR  --- 40 tcp 41 [0 0 0 0] ------- [3:0 6:0 30 2] [1 0] 0 0
s 0.168044999 _3_ RTR  --- 41 tcp 41 [0 0 0 0] ------- [3:0 6:0 30 2] [2 0] 0 0
r 0.170179944 _2_ RTR  --- 27 tcp 41 [13a 2 0 800] ------- [0:0 9:0 30 2] [11 0] 1 0
f 0.170179944 _2_ RTR  --- 27 tcp 41 [13a 2 0 800] ------- [0:0 9:0 29 9] [11 0] 1 0
r 0.172166296 _0_ AGT  --- 34 ack 40 [13a 0 2 800] ------- [9:0 0:0 29 0] [9 0] 2 0
s 0.172166296 _0_ AGT  --- 42 tcp 41 [0 0 0 0] ------- [0:0 9:0 32 0] [19 0] 0 0
r 0.172166296 _0_ RTR  --- 42 tcp 41 [0 0 0 0] ------- [0:0 9:0 32 0] [19 0] 0 0
s 0.172166296 _0_ AGT  --- 43 tcp 41 [0 0 0 0] ------- [0:0 9:0 32 0] [20 0] 0 0
r 0.172166296 _0_ RTR  --- 43 tcp 41 [0 0 0 0] ------- [0:0 9:0 32 0] [20 0] 0 0
s 0.172166296 _0_ RTR  --- 42 tcp 41 [0 0 0 0] ------- [0:0 9:0 30 2] [19 0] 0 0
s 0.172166296 _0_ RTR  --- 43 tcp 41 [0 0 0 0] ------- [0:0 9:0 30 2] [20 0] 0 0
r 0.174119873 _2_ RTR  --- 40 tcp 41 [13a 2 3 800] ------- [3:0 6:0 30 2] [1 0] 1 0
f 0.174119873 _2_ RTR  --- 40 tcp 41 [13a 2 3 800] ------- [3:0 6:0 29 9] [1 0] 1 0
r 0.175993566 _9_ AGT  --- 27 tcp 41 [13a 9 2 800] ------- [0:0 9:0 29 9] [11 0] 2 0
s 0.175993566 _9_ AGT  --- 44 ack 40 [0 0 0 0] ------- [9:0 0:0 32 0] [11 0] 0 0
r 0.175993566 _9_ RTR  --- 44 ack 40 [0 0 0 0] ------- [9:0 0:0 32 0] [11 0] 0 0
s 0.175993566 _9_ RTR  --- 44 ack 40 [0 0 0 0] ------- [9:0 0:0 30 2] [11 0] 0 0
r 0.177927823 _9_ RTR  --- 40 tcp 41 [13a 9 2 800] ------- [3:0 6:0 29 9] [1 0] 2 0
f 0.177927823 _9_ RTR  --- 40 tcp 41 [13a 9 2 800] ------- [3:0 6:0 28 6] [1 0] 2 0
r 0.179953516 _2_ RTR  --- 35 ack 40 [13a 2 9 800] ------- [9:0 0:0 30 2] [10 0] 1 0
f 0.179953516 _2_ RTR  --- 35 ack 40 [13a 2 9 800] ------- [9:0 0:0 29 0] [10 0] 1 0
r 0.181799868 _0_ AGT  --- 35 ack 40 [13a 0 2 800] ------- [9:0 0:0 29 0] [10 0] 2 0
s 0.181799868 _0_ AGT  --- 45 tcp 41 [0 0 0 0] ------- [0:0 9:0 32 0] [21 0] 0 0
r 0.181799868 _0_ RTR  --- 45 tcp 41 [0 0 0 0] ------- [0:0 9:0 32 0] [21 0] 0 0
s 0.181799868 _0_ AGT  --- 46 tcp 41 [0 0 0 0] ------- [0:0 9:0 32 0] [22 0] 0 0
r 0.181799868 _0_ RTR  --- 46 tcp 41 [0 0 0 0] ------- [0:0 9:0 32 0] [22 0] 0 0
s 0.181799868 _0_ RTR  --- 45 tcp 41 [0 0 0 0] ------- [0:0 9:0 30 2] [21 0] 0 0
s 0.181799868 _0_ RTR  --- 46 tcp 41 [0 0 0 0] ------- [0:0 9:0 30 2] [22 0] 0 0
r 0.183674219 _2_ RTR  --- 28 tcp 41 [13a 2 0 800] ------- [0:0 9:0 30 2] [12 0] 1 0
f 0.183674219 _2_ RTR  --- 28 tcp 41 [13a 2 0 800] ------- [0:0 9:0 29 9] [12 0] 1 0
r 0.185607912 _9_ AGT  --- 28 tcp 41 [13a 9 2 800] ------- [0:0 9:0 29 9] [12 0] 2 0
s 0.185607912 _9_ AGT  --- 47 ack 40 [0 0 0 0] ------- [9:0 0:0 32 0] [12 0] 0 0
r 0.185607912 _9_ RTR  --- 47 ack 40 [0 0 0 0] ------- [9:0 0:0 32 0] [12 0] 0 0
s 0.185607912 _9_ RTR  --- 47 ack 40 [0 0 0 0] ------- [9:0 0:0 30 2] [12 0] 0 0
r 0.187913605 _2_ RTR  --- 44 ack 40 [13a 2 9 800] ------- [9:0 0:0 30 2] [11 0] 1 0
f 0.187913605 _2_ RTR  --- 44 ack 40 [13a 2 9 800] ------- [9:0 0:0 29 0] [11 0] 1 0
r 0.189876865 _2_ RTR  --- 41 tcp 41 [13a 2 3 800] ------- [3:0 6:0 30 2] [2 0] 1 0
f 0.189876865 _2_ RTR  --- 41 tcp 41 [13a 2 3 800] ------- [3:0 6:0 29 9] [2 0] 1 0
r 0.191892001 _2_ RTR  --- 31 tcp 41 [13a 2 0 800] ------- [0:0 9:0 30 2] [13 0] 1 0
f 0.191892001 _2_ RTR  --- 31 tcp 41 [13a 2 0 800] ------- [0:0 9:0 29 9] [13 0] 1 0
r 0.193767137 _2_ RTR  --- 32 tcp 41 [13a 2 0 800] ------- [0:0 9:0 30 2] [14 0] 1 0
f 0.193767137 _2_ RTR  --- 32 tcp 41 [13a 2 0 800] ------- [0:0 9:0 29 9] [14 0] 1 0
r 0.195731336 _6_ AGT  --- 40 tcp 41 [13a 6 9 800] ------- [3:0 6:0 28 6] [1 0] 3 0
s 0.195731336 _6_ AGT  --- 48 ack 40 [0 0 0 0] ------- [6:0 3:0 32 0] [1 0] 0 0
r 0.195731336 _6_ RTR  --- 48 ack 40 [0 0 0 0] ------- [6:0 3:0 32 0] [1 0] 0 0
s 0.195731336 _6_ RTR  --- 48 ack 40 [0 0 0 0] ------- [6:0 3:0 30 9] [1 0] 0 0
r 0.198744910 _0_ AGT  --- 44 ack 40 [13a 0 2 800] ------- [9:0 0:0 29 0] [11 0] 2 0
s 0.198744910 _0_ AGT  --- 49 tcp 41 [0 0 0 0] ------- [0:0 9:0 32 0] [23 0] 0 0
r 0.198744910 _0_ RTR  --- 49 tcp 41 [0 0 0 0] ------- [0:0 9:0 32 0] [23 0] 0 0
s 0.198744910 _0_ AGT  --- 50 tcp 41 [0 0 0 0] ------- [0:0 9:0 32 0] [24 0] 0 0
r 0.198744910 _0_ RTR  --- 50 tcp 41 [0 0 0 0] ------- [0:0 9:0 32 0] [24 0] 0 0
s 0.198744910 _0_ RTR  --- 49 tcp 41 [0 0 0 0] ------- [0:0 9:0 30 2] [23 0] 0 0
s 0.198744910 _0_ RTR  --- 50 tcp 41 [0 0 0 0] ------- [0:0 9:0 30 2] [24 0] 0 0
r 0.200659261 _2_ RTR  --- 36 tcp 41 [13a 2 0 800] ------- [0:0 9:0 30 2] [15 0] 1 0
f 0.200659261 _2_ RTR  --- 36 tcp 41 [13a 2 0 800] ------- [0:0 9:0 29 9] [15 0] 1 0
r 0.202594397 _2_ RTR  --- 37 tcp 41 [13a 2 0 800] ------- [0:0 9:0 30 2] [16 0] 1 0
f 0.202594397 _2_ RTR  --- 37 tcp 41 [13a 2 0 800] ------- [0:0 9:0 29 9] [16 0] 1 0
r 0.204608090 _9_ RTR  --- 41 tcp 41 [13a 9 2 800] ------- [3:0 6:0 29 9] [2 0] 2 0
f 0.204608090 _9_ RTR  --- 41 tcp 41 [13a 9 2 800] ------- [3:0 6:0 28 6] [2 0] 2 0
r 0.206653783 _2_ RTR  --- 47 ack 40 [13a 2 9 800] ------- [9:0 0:0 30 2] [12 0] 1 0
f 0.206653783 _2_ RTR  --- 47 ack 40 [13a 2 9 800] ------- [9:0 0:0 29 0] [12 0] 1 0
r 0.208718580 _2_ RTR  --- 38 tcp 41 [13a 2 0 800] ------- [0:0 9:0 30 2] [17 0] 1 0
f 0.208718580 _2_ RTR  --- 38 tcp 41 [13a 2 0 800] ------- [0:0 9:0 29 9] [17 0] 1 0
r 0.210612273 _9_ AGT  --- 31 tcp 41 [13a 9 2 800] ------- [0:0 9:0 29 9] [13 0] 2 0
s 0.210612273 _9_ AGT  --- 51 ack 40 [0 0 0 0] ------- [9:0 0:0 32 0] [13 0] 0 0
r 0.210612273 _9_ RTR  --- 51 ack 40 [0 0 0 0] ------- [9:0 0:0 32 0] [13 0] 0 0
s 0.210612273 _9_ RTR  --- 51 ack 40 [0 0 0 0] ------- [9:0 0:0 30 2] [13 0] 0 0
r 0.212446530 _9_ AGT  --- 32 tcp 41 [13a 9 2 800] ------- [0:0 9:0 29 9] [14 0] 2 0
s 0.212446530 _9_ AGT  --- 52 ack 40 [0 0 0 0] ------- [9:0 0:0 32 0] [14 0] 0 0
r 0.212446530 _9_ RTR  --- 52 ack 40 [0 0 0 0] ------- [9:0 0:0 32 0] [14 0] 0 0
s 0.212446530 _9_ RTR  --- 52 ack 40 [0 0 0 0] ------- [9:0 0:0 30 2] [14 0] 0 0
r 0.214422805 _9_ RTR  --- 48 ack 40 [13a 9 6 800] ------- [6:0 3:0 30 9] [1 0] 1 0
f 0.214422805 _9_ RTR  --- 48 ack 40 [13a 9 6 800] ------- [6:0 3:0 29 2] [1 0] 1 0
r 0.216356779 _6_ AGT  --- 41 tcp 41 [13a 6 9 800] ------- [3:0 6:0 28 6] [2 0] 3 0
s 0.216356779 _6_ AGT  --- 53 ack 40 [0 0 0 0] ------- [6:0 3:0 32 0] [2 0] 0 0
r 0.216356779 _6_ RTR  --- 53 ack 40 [0 0 0 0] ------- [6:0 3:0 32 0] [2 0] 0 0
s 0.216356779 _6_ RTR  --- 53 ack 40 [0 0 0 0] ------- [6:0 3:0 30 9] [2 0] 0 0
r 0.218283130 _2_ RTR  --- 51 ack 40 [13a 2 9 800] ------- [9:0 0:0 30 2] [13 0] 1 0
f 0.218283130 _2_ RTR  --- 51 ack 40 [13a 2 9 800] ------- [9:0 0:0 29 0] [13 0] 1 0
r 0.220356823 _9_ AGT  --- 36 tcp 41 [13a 9 2 800] ------- [0:0 9:0 29 9] [15 0] 2 0
s 0.220356823 _9_ AGT  --- 54 ack 40 [0 0 0 0] ------- [9:0 0:0 32 0] [15 0] 0 0
r 0.220356823 _9_ RTR  --- 54 ack 40 [0 0 0 0] ------- [9:0 0:0 32 0] [15 0] 0 0
s 0.220356823 _9_ RTR  --- 54 ack 40 [0 0 0 0] ------- [9:0 0:0 30 2] [15 0] 0 0
r 0.222273098 _9_ RTR  --- 53 ack 40 [13a 9 6 800] ------- [6:0 3:0 30 9] [2 0] 1 0
f 0.222273098 _9_ RTR  --- 53 ack 40 [13a 9 6 800] ------- [6:0 3:0 29 2] [2 0] 1 0
r 0.224176999 _9_ AGT  --- 37 tcp 41 [13a 9 2 800] ------- [0:0 9:0 29 9] [16 0] 2 0
s 0.224176999 _9_ AGT  --- 55 ack 40 [0 0 0 0] ------- [9:0 0:0 32 0] [16 0] 0 0
r 0.224176999 _9_ RTR  --- 55 ack 40 [0 0 0 0] ------- [9:0 0:0 32 0] [16 0] 0 0
s 0.224176999 _9_ RTR  --- 55 ack 40 [0 0 0 0] ------- [9:0 0:0 30 2] [16 0] 0 0
r 0.226022692 _2_ RTR  --- 52 ack 40 [13a 2 9 800] ------- [9:0 0:0 30 2] [14 0] 1 0
f 0.226022692 _2_ RTR  --- 52 ack 40 [13a 2 9 800] ------- [9:0 0:0 29 0] [14 0] 1 0
r 0.227927489 _2_ RTR  --- 39 tcp 41 [13a 2 0 800] ------- [0:0 9:0 30 2] [18 0] 1 0
f 0.227927489 _2_ RTR  --- 39 tcp 41 [13a 2 0 800] ------- [0:0 9:0 29 9] [18 0] 1 0
r 0.230123408 _2_ RTR  --- 48 ack 40 [13a 2 9 800] ------- [6:0 3:0 29 2] [1 0] 2 0
f 0.230123408 _2_ RTR  --- 48 ack 40 [13a 2 9 800] ------- [6:0 3:0 28 3] [1 0] 2 0
r 0.232049759 _0_ AGT  --- 47 ack 40 [13a 0 2 800] ------- [9:0 0:0 29 0] [12 0] 2 0
s 0.232049759 _0_ AGT  --- 56 tcp 41 [0 0 0 0] ------- [0:0 9:0 32 0] [25 0] 0 0
r 0.232049759 _0_ RTR  --- 56 tcp 41 [0 0 0 0] ------- [0:0 9:0 32 0] [25 0] 0 0
s 0.232049759 _0_ AGT  --- 57 tcp 41 [0 0 0 0] ------- [0:0 9:0 32 0] [26 0] 0 0
r 0.232049759 _0_ RTR  --- 57 tcp 41 [0 0 0 0] ------- [0:0 9:0 32 0] [26 0] 0 0
s 0.232049759 _0_ RTR  --- 56 tcp 41 [0 0 0 0] ------- [0:0 9:0 30 2] [25 0] 0 0
s 0.232049759 _0_ RTR  --- 57 tcp 41 [0 0 0 0] ------- [0:0 9:0 30 2] [26 0] 0 0
r 0.233964111 _2_ RTR  --- 42 tcp 41 [13a 2 0 800] ------- [0:0 9:0 30 2] [19 0] 1 0
f 0.233964111 _2_ RTR  --- 42 tcp 41 [13a 2 0 800] ------- [0:0 9:0 29 9] [19 0] 1 0
r 0.235959247 _2_ RTR  --- 43 tcp 41 [13a 2 0 800] ------- [0:0 9:0 30 2] [20 0] 1 0
f 0.235959247 _2_ RTR  --- 43 tcp 41 [13a 2 0 800] ------- [0:0 9:0 29 9] [20 0] 1 0
r 0.237814382 _2_ RTR  --- 45 tcp 41 [13a 2 0 800] ------- [0:0 9:0 30 2] [21 0] 1 0
f 0.237814382 _2_ RTR  --- 45 tcp 41 [13a 2 0 800] ------- [0:0 9:0 29 9] [21 0] 1 0
r 0.239988075 _9_ AGT  --- 38 tcp 41 [13a 9 2 800] ------- [0:0 9:0 29 9] [17 0] 2 0
s 0.239988075 _9_ AGT  --- 58 ack 40 [0 0 0 0] ------- [9:0 0:0 32 0] [17 0] 0 0
r 0.239988075 _9_ RTR  --- 58 ack 40 [0 0 0 0] ------- [9:0 0:0 32 0] [17 0] 0 0
s 0.239988075 _9_ RTR  --- 58 ack 40 [0 0 0 0] ------- [9:0 0:0 30 2] [17 0] 0 0
r 0.241933768 _2_ RTR  --- 54 ack 40 [13a 2 9 800] ------- [9:0 0:0 30 2] [15 0] 1 0
f 0.241933768 _2_ RTR  --- 54 ack 40 [13a 2 9 800] ------- [9:0 0:0 29 0] [15 0] 1 0
r 0.243860120 _0_ AGT  --- 51 ack 40 [13a 0 2 800] ------- [9:0 0:0 29 0] [13 0] 2 0
s 0.243860120 _0_ AGT  --- 59 tcp 41 [0 0 0 0] ------- [0:0 9:0 32 0] [27 0] 0 0
r 0.243860120 _0_ RTR  --- 59 tcp 41 [0 0 0 0] ------- [0:0 9:0 32 0] [27 0] 0 0
s 0.243860120 _0_ AGT  --- 60 tcp 41 [0 0 0 0] ------- [0:0 9:0 32 0] [28 0] 0 0
r 0.243860120 _0_ RTR  --- 60 tcp 41 [0 0 0 0] ------- [0:0 9:0 32 0] [28 0] 0 0
s 0.243860120 _0_ RTR  --- 59 tcp 41 [0 0 0 0] ------- [0:0 9:0 30 2] [27 0] 0 0
s 0.243860120 _0_ RTR  --- 60 tcp 41 [0 0 0 0] ------- [0:0 9:0 30 2] [28 0] 0 0
r 0.245834472 _2_ RTR  --- 46 tcp 41 [13a 2 0 800] ------- [0:0 9:0 30 2] [22 0] 1 0
f 0.245834472 _2_ RTR  --- 46 tcp 41 [13a 2 0 800] ------- [0:0 9:0 29 9] [22 0] 1 0
r 0.247889607 _2_ RTR  --- 49 tcp 41 [13a 2 0 800] ------- [0:0 9:0 30 2] [23 0] 1 0
f 0.247889607 _2_ RTR  --- 49 tcp 41 [13a 2 0 800] ------- [0:0 9:0 29 9] [23 0] 1 0
r 0.249864743 _2_ RTR  --- 50 tcp 41 [13a 2 0 800] ------- [0:0 9:0 30 2] [24 0] 1 0
f 0.249864743 _2_ RTR  --- 50 tcp 41 [13a 2 0 800] ------- [0:0 9:0 29 9] [24 0] 1 0
r 0.251771095 _0_ AGT  --- 52 ack 40 [13a 0 2 800] ------- [9:0 0:0 29 0] [14 0] 2 0
s 0.251771095 _0_ AGT  --- 61 tcp 41 [0 0 0 0] ------- [0:0 9:0 32 0] [29 0] 0 0
r 0.251771095 _0_ RTR  --- 61 tcp 41 [0 0 0 0] ------- [0:0 9:0 32 0] [29 0] 0 0
s 0.251771095 _0_ AGT  --- 62 tcp 41 [0 0 0 0] ------- [0:0 9:0 32 0] [30 0] 0 0
r 0.251771095 _0_ RTR  --- 62 tcp 41 [0 0 0 0] ------- [0:0 9:0 32 0] [30 0] 0 0
s 0.251771095 _0_ RTR  --- 61 tcp 41 [0 0 0 0] ------- [0:0 9:0 30 2] [29 0] 0 0
s 0.251771095 _0_ RTR  --- 62 tcp 41 [0 0 0 0] ------- [0:0 9:0 30 2] [30 0] 0 0
r 0.253745446 _2_ RTR  --- 56 tcp 41 [13a 2 0 800] ------- [0:0 9:0 30 2] [25 0] 1 0
f 0.253745446 _2_ RTR  --- 56 tcp 41 [13a 2 0 800] ------- [0:0 9:0 29 9] [25 0] 1 0
r 0.255681365 _2_ RTR  --- 53 ack 40 [13a 2 9 800] ------- [6:0 3:0 29 2] [2 0] 2 0
f 0.255681365 _2_ RTR  --- 53 ack 40 [13a 2 9 800] ------- [6:0 3:0 28 3] [2 0] 2 0
s 0.256097836 _4_ AGT  --- 63 tcp 41 [0 0 0 0] ------- [4:0 5:0 32 0] [1 0] 0 0
r 0.256097836 _4_ RTR  --- 63 tcp 41 [0 0 0 0] ------- [4:0 5:0 32 0] [1 0] 0 0
s 0.256097836 _4_ RTR  --- 63 tcp 41 [0 0 0 0] ------- [4:0 5:0 30 7] [1 0] 0 0
r 0.257627622 _2_ RTR  --- 55 ack 40 [13a 2 9 800] ------- [9:0 0:0 30 2] [16 0] 1 0
f 0.257627622 _2_ RTR  --- 55 ack 40 [13a 2 9 800] ------- [9:0 0:0 29 0] [16 0] 1 0
r 0.259581315 _9_ AGT  --- 39 tcp 41 [13a 9 2 800] ------- [0:0 9:0 29 9] [18 0] 2 0
s 0.259581315 _9_ AGT  --- 64 ack 40 [0 0 0 0] ------- [9:0 0:0 32 0] [18 0] 0 0
r 0.259581315 _9_ RTR  --- 64 ack 40 [0 0 0 0] ------- [9:0 0:0 32 0] [18 0] 0 0
s 0.259581315 _9_ RTR  --- 64 ack 40 [0 0 0 0] ------- [9:0 0:0 30 2] [18 0] 0 0
r 0.261546672 _7_ RTR  --- 63 tcp 41 [13a 7 4 800] ------- [4:0 5:0 30 7] [1 0] 1 0
f 0.261546672 _7_ RTR  --- 63 tcp 41 [13a 7 4 800] ------- [4:0 5:0 29 5] [1 0] 1 0
r 0.263660112 _5_ AGT  --- 63 tcp 41 [13a 5 7 800] ------- [4:0 5:0 29 5] [1 0] 2 0
s 0.263660112 _5_ AGT  --- 65 ack 40 [0 0 0 0] ------- [5:0 4:0 32 0] [2 0] 0 0
r 0.263660112 _5_ RTR  --- 65 ack 40 [0 0 0 0] ------- [5:0 4:0 32 0] [2 0] 0 0
s 0.263660112 _5_ RTR  --- 0 AODV 48 [0 0 0 0] ------- [5:255 -1:255 4 0] [0x2 1 1 [4 5] [5 8]] (REQUEST)
r 0.265312591 _7_ RTR  --- 0 AODV 48 [0 ffffffff 5 800] ------- [5:255 -1:255 4 0] [0x2 1 1 [4 5] [5 8]] (REQUEST)
r 0.265902676 _2_ RTR  --- 57 tcp 41 [13a 2 0 800] ------- [0:0 9:0 30 2] [26 0] 1 0
f 0.265902676 _2_ RTR  --- 57 tcp 41 [13a 2 0 800] ------- [0:0 9:0 29 9] [26 0] 1 0
r 0.267787659 _3_ AGT  --- 48 ack 40 [13a 3 2 800] ------- [6:0 3:0 28 3] [1 0] 3 0
s 0.267787659 _3_ AGT  --- 66 tcp 41 [0 0 0 0] ------- [3:0 6:0 32 0] [3 0] 0 0
r 0.267787659 _3_ RTR  --- 66 tcp 41 [0 0 0 0] ------- [3:0 6:0 32 0] [3 0] 0 0
s 0.267787659 _3_ AGT  --- 67 tcp 41 [0 0 0 0] ------- [3:0 6:0 32 0] [4 0] 0 0
r 0.267787659 _3_ RTR  --- 67 tcp 41 [0 0 0 0] ------- [3:0 6:0 32 0] [4 0] 0 0
s 0.267787659 _3_ RTR  --- 66 tcp 41 [0 0 0 0] ------- [3:0 6:0 30 2] [3 0] 0 0
s 0.267787659 _3_ RTR  --- 67 tcp 41 [0 0 0 0] ------- [3:0 6:0 30 2] [4 0] 0 0
r 0.270061680 _9_ AGT  --- 42 tcp 41 [13a 9 2 800] ------- [0:0 9:0 29 9] [19 0] 2 0
s 0.270061680 _9_ AGT  --- 68 ack 40 [0 0 0 0] ------- [9:0 0:0 32 0] [19 0] 0 0
r 0.270061680 _9_ RTR  --- 68 ack 40 [0 0 0 0] ------- [9:0 0:0 32 0] [19 0] 0 0
s 0.270061680 _9_ RTR  --- 68 ack 40 [0 0 0 0] ------- [9:0 0:0 30 2] [19 0] 0 0
r 0.272115937 _9_ AGT  --- 43 tcp 41 [13a 9 2 800] ------- [0:0 9:0 29 9] [20 0] 2 0
s 0.272115937 _9_ AGT  --- 69 ack 40 [0 0 0 0] ------- [9:0 0:0 32 0] [20 0] 0 0
r 0.272115937 _9_ RTR  --- 69 ack 40 [0 0 0 0] ------- [9:0 0:0 32 0] [20 0] 0 0
s 0.272115937 _9_ RTR  --- 69 ack 40 [0 0 0 0] ------- [9:0 0:0 30 2] [20 0] 0 0
r 0.273950195 _9_ AGT  --- 45 tcp 41 [13a 9 2 800] ------- [0:0 9:0 29 9] [21 0] 2 0
s 0.273950195 _9_ AGT  --- 70 ack 40 [0 0 0 0] ------- [9:0 0:0 32 0] [21 0] 0 0
r 0.273950195 _9_ RTR  --- 70 ack 40 [0 0 0 0] ------- [9:0 0:0 32 0] [21 0] 0 0
s 0.273950195 _9_ RTR  --- 70 ack 40 [0 0 0 0] ------- [9:0 0:0 30 2] [21 0] 0 0
s 0.275185826 _7_ RTR  --- 0 AODV 48 [0 ffffffff 5 800] ------- [7:255 -1:255 3 0] [0x2 2 1 [4 5] [5 8]] (REQUEST)
r 0.275995888 _2_ RTR  --- 58 ack 40 [13a 2 9 800] ------- [9:0 0:0 30 2] [17 0] 1 0
f 0.275995888 _2_ RTR  --- 58 ack 40 [13a 2 9 800] ------- [9:0 0:0 29 0] [17 0] 1 0
r 0.276844980 _5_ RTR  --- 0 AODV 48 [0 ffffffff 7 800] ------- [7:255 -1:255 3 0] [0x2 2 1 [4 5] [5 8]] (REQUEST)
r 0.276845272 _4_ RTR  --- 0 AODV 48 [0 ffffffff 7 800] ------- [7:255 -1:255 3 0] [0x2 2 1 [4 5] [5 8]] (REQUEST)
s 0.276845272 _4_ RTR  --- 0 AODV 44 [0 0 0 0] ------- [4:255 5:255 30 7] [0x4 1 [4 6] 10.000000] (REPLY)
r 0.278619587 _7_ RTR  --- 0 AODV 44 [13a 7 4 800] ------- [4:255 5:255 30 7] [0x4 1 [4 6] 10.000000] (REPLY)