s 0.010000000 _0_ AGT  --- 0 tcp 40 [0 0 0 0] ------- [0:0 4:0 32 0] [0 0] 0 0
r 0.010000000 _0_ RTR  --- 0 tcp 40 [0 0 0 0] ------- [0:0 4:0 32 0] [0 0] 0 0
s 0.010000000 _0_ RTR  --- 0 AODV 48 [0 0 0 0] ------- [0:255 -1:255 30 0] [0x2 1 1 [4 0] [0 4]] (REQUEST)
r 0.010988395 _4_ RTR  --- 0 AODV 48 [0 ffffffff 0 800] ------- [0:255 -1:255 30 0] [0x2 1 1 [4 0] [0 4]] (REQUEST)
s 0.010988395 _4_ RTR  --- 0 AODV 44 [0 0 0 0] ------- [4:255 0:255 30 0] [0x4 1 [4 4] 10.000000] (REPLY)
r 0.015649163 _0_ RTR  --- 0 AODV 44 [13a 0 4 800] ------- [4:255 0:255 30 0] [0x4 1 [4 4] 10.000000] (REPLY)
s 0.015649163 _0_ RTR  --- 0 tcp 40 [0 0 0 0] ------- [0:0 4:0 30 4] [0 0] 0 0
r 0.017634349 _4_ AGT  --- 0 tcp 40 [13a 4 0 800] ------- [0:0 4:0 30 4] [0 0] 1 0
s 0.017634349 _4_ AGT  --- 1 ack 40 [0 0 0 0] ------- [4:0 0:0 32 0] [0 0] 0 0
r 0.017634349 _4_ RTR  --- 1 ack 40 [0 0 0 0] ------- [4:0 0:0 32 0] [0 0] 0 0
s 0.017634349 _4_ RTR  --- 1 ack 40 [0 0 0 0] ------- [4:0 0:0 30 0] [0 0] 0 0
r 0.019519534 _0_ AGT  --- 1 ack 40 [13a 0 4 800] ------- [4:0 0:0 30 0] [0 0] 1 0
s 0.019519534 _0_ AGT  --- 2 tcp 1540 [0 0 0 0] ------- [0:0 4:0 32 0] [1 0] 0 0
r 0.019519534 _0_ RTR  --- 2 tcp 1540 [0 0 0 0] ------- [0:0 4:0 32 0] [1 0] 0 0
s 0.019519534 _0_ AGT  --- 3 tcp 1540 [0 0 0 0] ------- [0:0 4:0 32 0] [2 0] 0 0
r 0.019519534 _0_ RTR  --- 3 tcp 1540 [0 0 0 0] ------- [0:0 4:0 32 0] [2 0] 0 0
s 0.019519534 _0_ RTR  --- 2 tcp 1540 [0 0 0 0] ------- [0:0 4:0 30 4] [1 0] 0 0
s 0.019519534 _0_ RTR  --- 3 tcp 1540 [0 0 0 0] ------- [0:0 4:0 30 4] [2 0] 0 0
r 0.033544720 _4_ AGT  --- 2 tcp 1540 [13a 4 0 800] ------- [0:0 4:0 30 4] [1 0] 1 0
s 0.033544720 _4_ AGT  --- 4 ack 40 [0 0 0 0] ------- [4:0 0:0 32 0] [1 0] 0 0
r 0.033544720 _4_ RTR  --- 4 ack 40 [0 0 0 0] ------- [4:0 0:0 32 0] [1 0] 0 0
s 0.033544720 _4_ RTR  --- 4 ack 40 [0 0 0 0] ------- [4:0 0:0 30 0] [1 0] 0 0
r 0.035549906 _0_ AGT  --- 4 ack 40 [13a 0 4 800] ------- [4:0 0:0 30 0] [1 0] 1 0
s 0.035549906 _0_ AGT  --- 5 tcp 1540 [0 0 0 0] ------- [0:0 4:0 32 0] [3 0] 0 0
r 0.035549906 _0_ RTR  --- 5 tcp 1540 [0 0 0 0] ------- [0:0 4:0 32 0] [3 0] 0 0
s 0.035549906 _0_ AGT  --- 6 tcp 1540 [0 0 0 0] ------- [0:0 4:0 32 0] [4 0] 0 0
r 0.035549906 _0_ RTR  --- 6 tcp 1540 [0 0 0 0] ------- [0:0 4:0 32 0] [4 0] 0 0
s 0.035549906 _0_ RTR  --- 5 tcp 1540 [0 0 0 0] ------- [0:0 4:0 30 4] [3 0] 0 0
s 0.035549906 _0_ RTR  --- 6 tcp 1540 [0 0 0 0] ------- [0:0 4:0 30 4] [4 0] 0 0
r 0.049475092 _4_ AGT  --- 3 tcp 1540 [13a 4 0 800] ------- [0:0 4:0 30 4] [2 0] 1 0
s 0.049475092 _4_ AGT  --- 7 ack 40 [0 0 0 0] ------- [4:0 0:0 32 0] [2 0] 0 0
r 0.049475092 _4_ RTR  --- 7 ack 40 [0 0 0 0] ------- [4:0 0:0 32 0] [2 0] 0 0
s 0.049475092 _4_ RTR  --- 7 ack 40 [0 0 0 0] ------- [4:0 0:0 30 0] [2 0] 0 0
r 0.063340674 _4_ AGT  --- 5 tcp 1540 [13a 4 0 800] ------- [0:0 4:0 30 4] [3 0] 1 0
s 0.063340674 _4_ AGT  --- 8 ack 40 [0 0 0 0] ------- [4:0 0:0 32 0] [3 0] 0 0
r 0.063340674 _4_ RTR  --- 8 ack 40 [0 0 0 0] ------- [4:0 0:0 32 0] [3 0] 0 0
s 0.063340674 _4_ RTR  --- 8 ack 40 [0 0 0 0] ------- [4:0 0:0 30 0] [3 0] 0 0
r 0.065285860 _0_ AGT  --- 7 ack 40 [13a 0 4 800] ------- [4:0 0:0 30 0] [2 0] 1 0
s 0.065285860 _0_ AGT  --- 9 tcp 1540 [0 0 0 0] ------- [0:0 4:0 32 0] [5 0] 0 0
r 0.065285860 _0_ RTR  --- 9 tcp 1540 [0 0 0 0] ------- [0:0 4:0 32 0] [5 0] 0 0
s 0.065285860 _0_ AGT  --- 10 tcp 1540 [0 0 0 0] ------- [0:0 4:0 32 0] [6 0] 0 0
r 0.065285860 _0_ RTR  --- 10 tcp 1540 [0 0 0 0] ------- [0:0 4:0 32 0] [6 0] 0 0
s 0.065285860 _0_ RTR  --- 9 tcp 1540 [0 0 0 0] ------- [0:0 4:0 30 4] [5 0] 0 0
s 0.065285860 _0_ RTR  --- 10 tcp 1540 [0 0 0 0] ------- [0:0 4:0 30 4] [6 0] 0 0
r 0.067271441 _0_ AGT  --- 8 ack 40 [13a 0 4 800] ------- [4:0 0:0 30 0] [3 0] 1 0
s 0.067271441 _0_ AGT  --- 11 tcp 1540 [0 0 0 0] ------- [0:0 4:0 32 0] [7 0] 0 0
r 0.067271441 _0_ RTR  --- 11 tcp 1540 [0 0 0 0] ------- [0:0 4:0 32 0] [7 0] 0 0
s 0.067271441 _0_ AGT  --- 12 tcp 1540 [0 0 0 0] ------- [0:0 4:0 32 0] [8 0] 0 0
r 0.067271441 _0_ RTR  --- 12 tcp 1540 [0 0 0 0] ------- [0:0 4:0 32 0] [8 0] 0 0
s 0.067271441 _0_ RTR  --- 11 tcp 1540 [0 0 0 0] ------- [0:0 4:0 30 4] [7 0] 0 0
s 0.067271441 _0_ RTR  --- 12 tcp 1540 [0 0 0 0] ------- [0:0 4:0 30 4] [8 0] 0 0
r 0.081356627 _4_ AGT  --- 6 tcp 1540 [13a 4 0 800] ------- [0:0 4:0 30 4] [4 0] 1 0
s 0.081356627 _4_ AGT  --- 13 ack 40 [0 0 0 0] ------- [4:0 0:0 32 0] [4 0] 0 0
r 0.081356627 _4_ RTR  --- 13 ack 40 [0 0 0 0] ------- [4:0 0:0 32 0] [4 0] 0 0
s 0.081356627 _4_ RTR  --- 13 ack 40 [0 0 0 0] ------- [4:0 0:0 30 0] [4 0] 0 0
r 0.083281813 _0_ AGT  --- 13 ack 40 [13a 0 4 800] ------- [4:0 0:0 30 0] [4 0] 1 0
s 0.083281813 _0_ AGT  --- 14 tcp 1540 [0 0 0 0] ------- [0:0 4:0 32 0] [9 0] 0 0
r 0.083281813 _0_ RTR  --- 14 tcp 1540 [0 0 0 0] ------- [0:0 4:0 32 0] [9 0] 0 0
s 0.083281813 _0_ AGT  --- 15 tcp 1540 [0 0 0 0] ------- [0:0 4:0 32 0] [10 0] 0 0
r 0.083281813 _0_ RTR  --- 15 tcp 1540 [0 0 0 0] ------- [0:0 4:0 32 0] [10 0] 0 0
s 0.083281813 _0_ RTR  --- 14 tcp 1540 [0 0 0 0] ------- [0:0 4:0 30 4] [9 0] 0 0
s 0.083281813 _0_ RTR  --- 15 tcp 1540 [0 0 0 0] ------- [0:0 4:0 30 4] [10 0] 0 0
r 0.097246999 _4_ AGT  --- 9 tcp 1540 [13a 4 0 800] ------- [0:0 4:0 30 4] [5 0] 1 0
s 0.097246999 _4_ AGT  --- 16 ack 40 [0 0 0 0] ------- [4:0 0:0 32 0] [5 0] 0 0
r 0.097246999 _4_ RTR  --- 16 ack 40 [0 0 0 0] ------- [4:0 0:0 32 0] [5 0] 0 0
s 0.097246999 _4_ RTR  --- 16 ack 40 [0 0 0 0] ------- [4:0 0:0 30 0] [5 0] 0 0
r 0.099092185 _0_ AGT  --- 16 ack 40 [13a 0 4 800] ------- [4:0 0:0 30 0] [5 0] 1 0
s 0.099092185 _0_ AGT  --- 17 tcp 1540 [0 0 0 0] ------- [0:0 4:0 32 0] [11 0] 0 0
r 0.099092185 _0_ RTR  --- 17 tcp 1540 [0 0 0 0] ------- [0:0 4:0 32 0] [11 0] 0 0
s 0.099092185 _0_ AGT  --- 18 tcp 1540 [0 0 0 0] ------- [0:0 4:0 32 0] [12 0] 0 0
r 0.099092185 _0_ RTR  --- 18 tcp 1540 [0 0 0 0] ------- [0:0 4:0 32 0] [12 0] 0 0
s 0.099092185 _0_ RTR  --- 17 tcp 1540 [0 0 0 0] ------- [0:0 4:0 30 4] [11 0] 0 0
s 0.099092185 _0_ RTR  --- 18 tcp 1540 [0 0 0 0] ------- [0:0 4:0 30 4] [12 0] 0 0
r 0.113377371 _4_ AGT  --- 10 tcp 1540 [13a 4 0 800] ------- [0:0 4:0 30 4] [6 0] 1 0
s 0.113377371 _4_ AGT  --- 19 ack 40 [0 0 0 0] ------- [4:0 0:0 32 0] [6 0] 0 0
r 0.113377371 _4_ RTR  --- 19 ack 40 [0 0 0 0] ------- [4:0 0:0 32 0] [6 0] 0 0
s 0.113377371 _4_ RTR  --- 19 ack 40 [0 0 0 0] ------- [4:0 0:0 30 0] [6 0] 0 0
r 0.127402952 _4_ AGT  --- 11 tcp 1540 [13a 4 0 800] ------- [0:0 4:0 30 4] [7 0] 1 0
s 0.127402952 _4_ AGT  --- 20 ack 40 [0 0 0 0] ------- [4:0 0:0 32 0] [7 0] 0 0
r 0.127402952 _4_ RTR  --- 20 ack 40 [0 0 0 0] ------- [4:0 0:0 32 0] [7 0] 0 0
s 0.127402952 _4_ RTR  --- 20 ack 40 [0 0 0 0] ------- [4:0 0:0 30 0] [7 0] 0 0
r 0.129348138 _0_ AGT  --- 19 ack 40 [13a 0 4 800] ------- [4:0 0:0 30 0] [6 0] 1 0
s 0.129348138 _0_ AGT  --- 21 tcp 1540 [0 0 0 0] ------- [0:0 4:0 32 0] [13 0] 0 0
r 0.129348138 _0_ RTR  --- 21 tcp 1540 [0 0 0 0] ------- [0:0 4:0 32 0] [13 0] 0 0
s 0.129348138 _0_ AGT  --- 22 tcp 1540 [0 0 0 0] ------- [0:0 4:0 32 0] [14 0] 0 0
r 0.129348138 _0_ RTR  --- 22 tcp 1540 [0 0 0 0] ------- [0:0 4:0 32 0] [14 0] 0 0
s 0.129348138 _0_ RTR  --- 21 tcp 1540 [0 0 0 0] ------- [0:0 4:0 30 4] [13 0] 0 0
s 0.129348138 _0_ RTR  --- 22 tcp 1540 [0 0 0 0] ------- [0:0 4:0 30 4] [14 0] 0 0
r 0.131193719 _0_ AGT  --- 20 ack 40 [13a 0 4 800] ------- [4:0 0:0 30 0] [7 0] 1 0
s 0.131193719 _0_ AGT  --- 23 tcp 1540 [0 0 0 0] ------- [0:0 4:0 32 0] [15 0] 0 0
r 0.131193719 _0_ RTR  --- 23 tcp 1540 [0 0 0 0] ------- [0:0 4:0 32 0] [15 0] 0 0
s 0.131193719 _0_ AGT  --- 24 tcp 1540 [0 0 0 0] ------- [0:0 4:0 32 0] [16 0] 0 0
r 0.131193719 _0_ RTR  --- 24 tcp 1540 [0 0 0 0] ------- [0:0 4:0 32 0] [16 0] 0 0
s 0.131193719 _0_ RTR  --- 23 tcp 1540 [0 0 0 0] ------- [0:0 4:0 30 4] [15 0] 0 0
s 0.131193719 _0_ RTR  --- 24 tcp 1540 [0 0 0 0] ------- [0:0 4:0 30 4] [16 0] 0 0
r 0.145098905 _4_ AGT  --- 12 tcp 1540 [13a 4 0 800] ------- [0:0 4:0 30 4] [8 0] 1 0
s 0.145098905 _4_ AGT  --- 25 ack 40 [0 0 0 0] ------- [4:0 0:0 32 0] [8 0] 0 0
r 0.145098905 _4_ RTR  --- 25 ack 40 [0 0 0 0] ------- [4:0 0:0 32 0] [8 0] 0 0
s 0.145098905 _4_ RTR  --- 25 ack 40 [0 0 0 0] ------- [4:0 0:0 30 0] [8 0] 0 0
r 0.147104091 _0_ AGT  --- 25 ack 40 [13a 0 4 800] ------- [4:0 0:0 30 0] [8 0] 1 0
s 0.147104091 _0_ AGT  --- 26 tcp 1540 [0 0 0 0] ------- [0:0 4:0 32 0] [17 0] 0 0
r 0.147104091 _0_ RTR  --- 26 tcp 1540 [0 0 0 0] ------- [0:0 4:0 32 0] [17 0] 0 0
s 0.147104091 _0_ AGT  --- 27 tcp 1540 [0 0 0 0] ------- [0:0 4:0 32 0] [18 0] 0 0
r 0.147104091 _0_ RTR  --- 27 tcp 1540 [0 0 0 0] ------- [0:0 4:0 32 0] [18 0] 0 0
s 0.147104091 _0_ RTR  --- 26 tcp 1540 [0 0 0 0] ------- [0:0 4:0 30 4] [17 0] 0 0
s 0.147104091 _0_ RTR  --- 27 tcp 1540 [0 0 0 0] ------- [0:0 4:0 30 4] [18 0] 0 0
r 0.161189277 _4_ AGT  --- 14 tcp 1540 [13a 4 0 800] ------- [0:0 4:0 30 4] [9 0] 1 0
s 0.161189277 _4_ AGT  --- 28 ack 40 [0 0 0 0] ------- [4:0 0:0 32 0] [9 0] 0 0
r 0.161189277 _4_ RTR  --- 28 ack 40 [0 0 0 0] ------- [4:0 0:0 32 0] [9 0] 0 0
s 0.161189277 _4_ RTR  --- 28 ack 40 [0 0 0 0] ------- [4:0 0:0 30 0] [9 0] 0 0
r 0.175414858 _4_ AGT  --- 15 tcp 1540 [13a 4 0 800] ------- [0:0 4:0 30 4] [10 0] 1 0
s 0.175414858 _4_ AGT  --- 29 ack 40 [0 0 0 0] ------- [4:0 0:0 32 0] [10 0] 0 0
r 0.175414858 _4_ RTR  --- 29 ack 40 [0 0 0 0] ------- [4:0 0:0 32 0] [10 0] 0 0
s 0.175414858 _4_ RTR  --- 29 ack 40 [0 0 0 0] ------- [4:0 0:0 30 0] [10 0] 0 0
r 0.177420044 _0_ AGT  --- 28 ack 40 [13a 0 4 800] ------- [4:0 0:0 30 0] [9 0] 1 0
s 0.177420044 _0_ AGT  --- 30 tcp 1540 [0 0 0 0] ------- [0:0 4:0 32 0] [19 0] 0 0
r 0.177420044 _0_ RTR  --- 30 tcp 1540 [0 0 0 0] ------- [0:0 4:0 32 0] [19 0] 0 0
s 0.177420044 _0_ AGT  --- 31 tcp 1540 [0 0 0 0] ------- [0:0 4:0 32 0] [20 0] 0 0
r 0.177420044 _0_ RTR  --- 31 tcp 1540 [0 0 0 0] ------- [0:0 4:0 32 0] [20 0] 0 0
s 0.177420044 _0_ RTR  --- 30 tcp 1540 [0 0 0 0] ------- [0:0 4:0 30 4] [19 0] 0 0
s 0.177420044 _0_ RTR  --- 31 tcp 1540 [0 0 0 0] ------- [0:0 4:0 30 4] [20 0] 0 0
r 0.193392021 _4_ AGT  --- 17 tcp 1540 [13a 4 0 800] ------- [0:0 4:0 30 4] [11 0] 1 0
s 0.193392021 _4_ AGT  --- 32 ack 40 [0 0 0 0] ------- [4:0 0:0 32 0] [11 0] 0 0
r 0.193392021 _4_ RTR  --- 32 ack 40 [0 0 0 0] ------- [4:0 0:0 32 0] [11 0] 0 0
s 0.193392021 _4_ RTR  --- 32 ack 40 [0 0 0 0] ------- [4:0 0:0 30 0] [11 0] 0 0
r 0.195317207 _0_ AGT  --- 29 ack 40 [13a 0 4 800] ------- [4:0 0:0 30 0] [10 0] 1 0
s 0.195317207 _0_ AGT  --- 33 tcp 1540 [0 0 0 0] ------- [0:0 4:0 32 0] [21 0] 0 0
r 0.195317207 _0_ RTR  --- 33 tcp 1540 [0 0 0 0] ------- [0:0 4:0 32 0] [21 0] 0 0
s 0.195317207 _0_ AGT  --- 34 tcp 1540 [0 0 0 0] ------- [0:0 4:0 32 0] [22 0] 0 0
r 0.195317207 _0_ RTR  --- 34 tcp 1540 [0 0 0 0] ------- [0:0 4:0 32 0] [22 0] 0 0
s 0.195317207 _0_ RTR  --- 33 tcp 1540 [0 0 0 0] ------- [0:0 4:0 30 4] [21 0] 0 0
s 0.195317207 _0_ RTR  --- 34 tcp 1540 [0 0 0 0] ------- [0:0 4:0 30 4] [22 0] 0 0
r 0.197282788 _0_ AGT  --- 32 ack 40 [13a 0 4 800] ------- [4:0 0:0 30 0] [11 0] 1 0
s 0.197282788 _0_ AGT  --- 35 tcp 1540 [0 0 0 0] ------- [0:0 4:0 32 0] [23 0] 0 0
r 0.197282788 _0_ RTR  --- 35 tcp 1540 [0 0 0 0] ------- [0:0 4:0 32 0] [23 0] 0 0
s 0.197282788 _0_ AGT  --- 36 tcp 1540 [0 0 0 0] ------- [0:0 4:0 32 0] [24 0] 0 0
r 0.197282788 _0_ RTR  --- 36 tcp 1540 [0 0 0 0] ------- [0:0 4:0 32 0] [24 0] 0 0
s 0.197282788 _0_ RTR  --- 35 tcp 1540 [0 0 0 0] ------- [0:0 4:0 30 4] [23 0] 0 0
s 0.197282788 _0_ RTR  --- 36 tcp 1540 [0 0 0 0] ------- [0:0 4:0 30 4] [24 0] 0 0
r 0.211227974 _4_ AGT  --- 18 tcp 1540 [13a 4 0 800] ------- [0:0 4:0 30 4] [12 0] 1 0
s 0.211227974 _4_ AGT  --- 37 ack 40 [0 0 0 0] ------- [4:0 0:0 32 0] [12 0] 0 0
r 0.211227974 _4_ RTR  --- 37 ack 40 [0 0 0 0] ------- [4:0 0:0 32 0] [12 0] 0 0
s 0.211227974 _4_ RTR  --- 37 ack 40 [0 0 0 0] ------- [4:0 0:0 30 0] [12 0] 0 0
r 0.225253555 _4_ AGT  --- 21 tcp 1540 [13a 4 0 800] ------- [0:0 4:0 30 4] [13 0] 1 0
s 0.225253555 _4_ AGT  --- 38 ack 40 [0 0 0 0] ------- [4:0 0:0 32 0] [13 0] 0 0
r 0.225253555 _4_ RTR  --- 38 ack 40 [0 0 0 0] ------- [4:0 0:0 32 0] [13 0] 0 0
s 0.225253555 _4_ RTR  --- 38 ack 40 [0 0 0 0] ------- [4:0 0:0 30 0] [13 0] 0 0
r 0.227158741 _0_ AGT  --- 37 ack 40 [13a 0 4 800] ------- [4:0 0:0 30 0] [12 0] 1 0
s 0.227158741 _0_ AGT  --- 39 tcp 1540 [0 0 0 0] ------- [0:0 4:0 32 0] [25 0] 0 0
r 0.227158741 _0_ RTR  --- 39 tcp 1540 [0 0 0 0] ------- [0:0 4:0 32 0] [25 0] 0 0
s 0.227158741 _0_ AGT  --- 40 tcp 1540 [0 0 0 0] ------- [0:0 4:0 32 0] [26 0] 0 0
r 0.227158741 _0_ RTR  --- 40 tcp 1540 [0 0 0 0] ------- [0:0 4:0 32 0] [26 0] 0 0
s 0.227158741 _0_ RTR  --- 39 tcp 1540 [0 0 0 0] ------- [0:0 4:0 30 4] [25 0] 0 0
s 0.227158741 _0_ RTR  --- 40 tcp 1540 [0 0 0 0] ------- [0:0 4:0 30 4] [26 0] 0 0
r 0.241023927 _4_ AGT  --- 22 tcp 1540 [13a 4 0 800] ------- [0:0 4:0 30 4] [14 0] 1 0
s 0.241023927 _4_ AGT  --- 41 ack 40 [0 0 0 0] ------- [4:0 0:0 32 0] [14 0] 0 0
r 0.241023927 _4_ RTR  --- 41 ack 40 [0 0 0 0] ------- [4:0 0:0 32 0] [14 0] 0 0
s 0.241023927 _4_ RTR  --- 41 ack 40 [0 0 0 0] ------- [4:0 0:0 30 0] [14 0] 0 0
r 0.255069509 _4_ AGT  --- 23 tcp 1540 [13a 4 0 800] ------- [0:0 4:0 30 4] [15 0] 1 0
s 0.255069509 _4_ AGT  --- 42 ack 40 [0 0 0 0] ------- [4:0 0:0 32 0] [15 0] 0 0
r 0.255069509 _4_ RTR  --- 42 ack 40 [0 0 0 0] ------- [4:0 0:0 32 0] [15 0] 0 0
s 0.255069509 _4_ RTR  --- 42 ack 40 [0 0 0 0] ------- [4:0 0:0 30 0] [15 0] 0 0
r 0.269095090 _4_ AGT  --- 24 tcp 1540 [13a 4 0 800] ------- [0:0 4:0 30 4] [16 0] 1 0
s 0.269095090 _4_ AGT  --- 43 ack 40 [0 0 0 0] ------- [4:0 0:0 32 0] [16 0] 0 0
r 0.269095090 _4_ RTR  --- 43 ack 40 [0 0 0 0] ------- [4:0 0:0 32 0] [16 0] 0 0
s 0.269095090 _4_ RTR  --- 43 ack 40 [0 0 0 0] ------- [4:0 0:0 30 0] [16 0] 0 0
r 0.270980276 _0_ AGT  --- 38 ack 40 [13a 0 4 800] ------- [4:0 0:0 30 0] [13 0] 1 0
s 0.270980276 _0_ AGT  --- 44 tcp 1540 [0 0 0 0] ------- [0:0 4:0 32 0] [27 0] 0 0
r 0.270980276 _0_ RTR  --- 44 tcp 1540 [0 0 0 0] ------- [0:0 4:0 32 0] [27 0] 0 0
s 0.270980276 _0_ AGT  --- 45 tcp 1540 [0 0 0 0] ------- [0:0 4:0 32 0] [28 0] 0 0
r 0.270980276 _0_ RTR  --- 45 tcp 1540 [0 0 0 0] ------- [0:0 4:0 32 0] [28 0] 0 0
s 0.270980276 _0_ RTR  --- 44 tcp 1540 [0 0 0 0] ------- [0:0 4:0 30 4] [27 0] 0 0
s 0.270980276 _0_ RTR  --- 45 tcp 1540 [0 0 0 0] ------- [0:0 4:0 30 4] [28 0] 0 0
r 0.272865857 _0_ AGT  --- 41 ack 40 [13a 0 4 800] ------- [4:0 0:0 30 0] [14 0] 1 0
s 0.272865857 _0_ AGT  --- 46 tcp 1540 [0 0 0 0] ------- [0:0 4:0 32 0] [29 0] 0 0
r 0.272865857 _0_ RTR  --- 46 tcp 1540 [0 0 0 0] ------- [0:0 4:0 32 0] [29 0] 0 0
s 0.272865857 _0_ AGT  --- 47 tcp 1540 [0 0 0 0] ------- [0:0 4:0 32 0] [30 0] 0 0
r 0.272865857 _0_ RTR  --- 47 tcp 1540 [0 0 0 0] ------- [0:0 4:0 32 0] [30 0] 0 0
s 0.272865857 _0_ RTR  --- 46 tcp 1540 [0 0 0 0] ------- [0:0 4:0 30 4] [29 0] 0 0
s 0.272865857 _0_ RTR  --- 47 tcp 1540 [0 0 0 0] ------- [0:0 4:0 30 4] [30 0] 0 0
r 0.274811438 _0_ AGT  --- 42 ack 40 [13a 0 4 800] ------- [4:0 0:0 30 0] [15 0] 1 0
s 0.274811438 _0_ AGT  --- 48 tcp 1540 [0 0 0 0] ------- [0:0 4:0 32 0] [31 0] 0 0
r 0.274811438 _0_ RTR  --- 48 tcp 1540 [0 0 0 0] ------- [0:0 4:0 32 0] [31 0] 0 0
s 0.274811438 _0_ AGT  --- 49 tcp 1540 [0 0 0 0] ------- [0:0 4:0 32 0] [32 0] 0 0
r 0.274811438 _0_ RTR  --- 49 tcp 1540 [0 0 0 0] ------- [0:0 4:0 32 0] [32 0] 0 0
s 0.274811438 _0_ RTR  --- 48 tcp 1540 [0 0 0 0] ------- [0:0 4:0 30 4] [31 0] 0 0
s 0.274811438 _0_ RTR  --- 49 tcp 1540 [0 0 0 0] ------- [0:0 4:0 30 4] [32 0] 0 0
r 0.277783020 _0_ AGT  --- 43 ack 40 [13a 0 4 800] ------- [4:0 0:0 30 0] [16 0] 1 0
s 0.277783020 _0_ AGT  --- 50 tcp 1540 [0 0 0 0] ------- [0:0 4:0 32 0] [33 0] 0 0
r 0.277783020 _0_ RTR  --- 50 tcp 1540 [0 0 0 0] ------- [0:0 4:0 32 0] [33 0] 0 0
s 0.277783020 _0_ AGT  --- 51 tcp 1540 [0 0 0 0] ------- [0:0 4:0 32 0] [34 0] 0 0
r 0.277783020 _0_ RTR  --- 51 tcp 1540 [0 0 0 0] ------- [0:0 4:0 32 0] [34 0] 0 0
s 0.277783020 _0_ RTR  --- 50 tcp 1540 [0 0 0 0] ------- [0:0 4:0 30 4] [33 0] 0 0
s 0.277783020 _0_ RTR  --- 51 tcp 1540 [0 0 0 0] ------- [0:0 4:0 30 4] [34 0] 0 0
r 0.292268206 _4_ AGT  --- 26 tcp 1540 [13a 4 0 800] ------- [0:0 4:0 30 4] [17 0] 1 0
s 0.292268206 _4_ AGT  --- 52 ack 40 [0 0 0 0] ------- [4:0 0:0 32 0] [17 0] 0 0
r 0.292268206 _4_ RTR  --- 52 ack 40 [0 0 0 0] ------- [4:0 0:0 32 0] [17 0] 0 0
s 0.292268206 _4_ RTR  --- 52 ack 40 [0 0 0 0] ------- [4:0 0:0 30 0] [17 0] 0 0
r 0.294373392 _0_ AGT  --- 52 ack 40 [13a 0 4 800] ------- [4:0 0:0 30 0] [17 0] 1 0
s 0.294373392 _0_ AGT  --- 53 tcp 1540 [0 0 0 0] ------- [0:0 4:0 32 0] [35 0] 0 0
r 0.294373392 _0_ RTR  --- 53 tcp 1540 [0 0 0 0] ------- [0:0 4:0 32 0] [35 0] 0 0
s 0.294373392 _0_ AGT  --- 54 tcp 1540 [0 0 0 0] ------- [0:0 4:0 32 0] [36 0] 0 0
r 0.294373392 _0_ RTR  --- 54 tcp 1540 [0 0 0 0] ------- [0:0 4:0 32 0] [36 0] 0 0
s 0.294373392 _0_ RTR  --- 53 tcp 1540 [0 0 0 0] ------- [0:0 4:0 30 4] [35 0] 0 0
s 0.294373392 _0_ RTR  --- 54 tcp 1540 [0 0 0 0] ------- [0:0 4:0 30 4] [36 0] 0 0
r 0.308398578 _4_ AGT  --- 27 tcp 1540 [13a 4 0 800] ------- [0:0 4:0 30 4] [18 0] 1 0
s 0.308398578 _4_ AGT  --- 55 ack 40 [0 0 0 0] ------- [4:0 0:0 32 0] [18 0] 0 0
r 0.308398578 _4_ RTR  --- 55 ack 40 [0 0 0 0] ------- [4:0 0:0 32 0] [18 0] 0 0
s 0.308398578 _4_ RTR  --- 55 ack 40 [0 0 0 0] ------- [4:0 0:0 30 0] [18 0] 0 0
r 0.310443763 _0_ AGT  --- 55 ack 40 [13a 0 4 800] ------- [4:0 0:0 30 0] [18 0] 1 0
s 0.310443763 _0_ AGT  --- 56 tcp 1540 [0 0 0 0] ------- [0:0 4:0 32 0] [37 0] 0 0
r 0.310443763 _0_ RTR  --- 56 tcp 1540 [0 0 0 0] ------- [0:0 4:0 32 0] [37 0] 0 0
s 0.310443763 _0_ AGT  --- 57 tcp 1540 [0 0 0 0] ------- [0:0 4:0 32 0] [38 0] 0 0
r 0.310443763 _0_ RTR  --- 57 tcp 1540 [0 0 0 0] ------- [0:0 4:0 32 0] [38 0] 0 0
s 0.310443763 _0_ RTR  --- 56 tcp 1540 [0 0 0 0] ------- [0:0 4:0 30 4] [37 0] 0 0
s 0.310443763 _0_ RTR  --- 57 tcp 1540 [0 0 0 0] ------- [0:0 4:0 30 4] [38 0] 0 0
r 0.324388949 _4_ AGT  --- 30 tcp 1540 [13a 4 0 800] ------- [0:0 4:0 30 4] [19 0] 1 0
s 0.324388949 _4_ AGT  --- 58 ack 40 [0 0 0 0] ------- [4:0 0:0 32 0] [19 0] 0 0
r 0.324388949 _4_ RTR  --- 58 ack 40 [0 0 0 0] ------- [4:0 0:0 32 0] [19 0] 0 0
s 0.324388949 _4_ RTR  --- 58 ack 40 [0 0 0 0] ------- [4:0 0:0 30 0] [19 0] 0 0
r 0.326254135 _0_ AGT  --- 58 ack 40 [13a 0 4 800] ------- [4:0 0:0 30 0] [19 0] 1 0
s 0.326254135 _0_ AGT  --- 59 tcp 1540 [0 0 0 0] ------- [0:0 4:0 32 0] [39 0] 0 0
r 0.326254135 _0_ RTR  --- 59 tcp 1540 [0 0 0 0] ------- [0:0 4:0 32 0] [39 0] 0 0
s 0.326254135 _0_ RTR  --- 59 tcp 1540 [0 0 0 0] ------- [0:0 4:0 30 4] [39 0] 0 0
r 0.340279321 _4_ AGT  --- 31 tcp 1540 [13a 4 0 800] ------- [0:0 4:0 30 4] [20 0] 1 0
s 0.340279321 _4_ AGT  --- 60 ack 40 [0 0 0 0] ------- [4:0 0:0 32 0] [20 0] 0 0
r 0.340279321 _4_ RTR  --- 60 ack 40 [0 0 0 0] ------- [4:0 0:0 32 0] [20 0] 0 0
s 0.340279321 _4_ RTR  --- 60 ack 40 [0 0 0 0] ------- [4:0 0:0 30 0] [20 0] 0 0
r 0.354104903 _4_ AGT  --- 33 tcp 1540 [13a 4 0 800] ------- [0:0 4:0 30 4] [21 0] 1 0
s 0.354104903 _4_ AGT  --- 61 ack 40 [0 0 0 0] ------- [4:0 0:0 32 0] [21 0] 0 0
r 0.354104903 _4_ RTR  --- 61 ack 40 [0 0 0 0] ------- [4:0 0:0 32 0] [21 0] 0 0
s 0.354104903 _4_ RTR  --- 61 ack 40 [0 0 0 0] ------- [4:0 0:0 30 0] [21 0] 0 0
r 0.368170484 _4_ AGT  --- 34 tcp 1540 [13a 4 0 800] ------- [0:0 4:0 30 4] [22 0] 1 0
s 0.368170484 _4_ AGT  --- 62 ack 40 [0 0 0 0] ------- [4:0 0:0 32 0] [22 0] 0 0
r 0.368170484 _4_ RTR  --- 62 ack 40 [0 0 0 0] ------- [4:0 0:0 32 0] [22 0] 0 0
s 0.368170484 _4_ RTR  --- 62 ack 40 [0 0 0 0] ------- [4:0 0:0 30 0] [22 0] 0 0
r 0.370055670 _0_ AGT  --- 60 ack 40 [13a 0 4 800] ------- [4:0 0:0 30 0] [20 0] 1 0
s 0.370055670 _0_ AGT  --- 63 tcp 1540 [0 0 0 0] ------- [0:0 4:0 32 0] [40 0] 0 0
r 0.370055670 _0_ RTR  --- 63 tcp 1540 [0 0 0 0] ------- [0:0 4:0 32 0] [40 0] 0 0
s 0.370055670 _0_ RTR  --- 63 tcp 1540 [0 0 0 0] ------- [0:0 4:0 30 4] [40 0] 0 0
r 0.384120856 _4_ AGT  --- 35 tcp 1540 [13a 4 0 800] ------- [0:0 4:0 30 4] [23 0] 1 0
s 0.384120856 _4_ AGT  --- 64 ack 40 [0 0 0 0] ------- [4:0 0:0 32 0] [23 0] 0 0
r 0.384120856 _4_ RTR  --- 64 ack 40 [0 0 0 0] ------- [4:0 0:0 32 0] [23 0] 0 0
s 0.384120856 _4_ RTR  --- 64 ack 40 [0 0 0 0] ------- [4:0 0:0 30 0] [23 0] 0 0
r 0.397966437 _4_ AGT  --- 36 tcp 1540 [13a 4 0 800] ------- [0:0 4:0 30 4] [24 0] 1 0
s 0.397966437 _4_ AGT  --- 65 ack 40 [0 0 0 0] ------- [4:0 0:0 32 0] [24 0] 0 0
r 0.397966437 _4_ RTR  --- 65 ack 40 [0 0 0 0] ------- [4:0 0:0 32 0] [24 0] 0 0
s 0.397966437 _4_ RTR  --- 65 ack 40 [0 0 0 0] ------- [4:0 0:0 30 0] [24 0] 0 0
r 0.399811623 _0_ AGT  --- 61 ack 40 [13a 0 4 800] ------- [4:0 0:0 30 0] [21 0] 1 0
s 0.399811623 _0_ AGT  --- 66 tcp 1540 [0 0 0 0] ------- [0:0 4:0 32 0] [41 0] 0 0
r 0.399811623 _0_ RTR  --- 66 tcp 1540 [0 0 0 0] ------- [0:0 4:0 32 0] [41 0] 0 0
s 0.399811623 _0_ RTR  --- 66 tcp 1540 [0 0 0 0] ------- [0:0 4:0 30 4] [41 0] 0 0
r 0.401877204 _0_ AGT  --- 62 ack 40 [13a 0 4 800] ------- [4:0 0:0 30 0] [22 0] 1 0
s 0.401877204 _0_ AGT  --- 67 tcp 1540 [0 0 0 0] ------- [0:0 4:0 32 0] [42 0] 0 0
r 0.401877204 _0_ RTR  --- 67 tcp 1540 [0 0 0 0] ------- [0:0 4:0 32 0] [42 0] 0 0
s 0.401877204 _0_ RTR  --- 67 tcp 1540 [0 0 0 0] ------- [0:0 4:0 30 4] [42 0] 0 0