n -t * -s 0  -x 567 -y 837 -Z 0 -z 25  -v circle -c black
n -t * -s 1  -x 540 -y 30 -Z 0 -z 25  -v circle -c black
n -t * -s 2  -x 782 -y 566 -Z 0 -z 25  -v circle -c black
n -t * -s 3  -x 777 -y 364 -Z 0 -z 25  -v circle -c black
n -t * -s 4  -x 459 -y 886 -Z 0 -z 25  -v circle -c black
V -t * -v 1.0a5 -a 0
W -t * -x 1000 -y 1000
A -t * -n 1 -p 0 -o 0x7fffffff -c 30 -a 1
A -t * -h 1 -m 1073741823 -s 0
+ -t 0.010000000 -s 0 -d -1 -p tcp -e 40 -c 2 -a 0 -i 0 -k AGT 
- -t 0.010000000 -s 0 -d -1 -p tcp -e 40 -c 2 -a 0 -i 0 -k AGT
h -t 0.010000000 -s 0 -d -1 -p tcp -e 40 -c 2 -a 0 -i 0 -k AGT
+ -t 0.010000000 -s 0 -d -1 -p AODV -e 48 -c 2 -a 0 -i 0 -k RTR 
- -t 0.010000000 -s 0 -d -1 -p AODV -e 48 -c 2 -a 0 -i 0 -k RTR
h -t 0.010000000 -s 0 -d -1 -p AODV -e 48 -c 2 -a 0 -i 0 -k RTR
r -t 0.010988395 -s 4 -d -1 -p AODV -e 48 -c 2 -a 0 -i 0 -k RTR
+ -t 0.010988395 -s 4 -d 0 -p AODV -e 44 -c 2 -a 0 -i 0 -k RTR 
- -t 0.010988395 -s 4 -d 0 -p AODV -e 44 -c 2 -a 0 -i 0 -k RTR
h -t 0.010988395 -s 4 -d 0 -p AODV -e 44 -c 2 -a 0 -i 0 -k RTR
+ -t 0.015649163 -s 0 -d 4 -p tcp -e 40 -c 2 -a 0 -i 0 -k RTR 
- -t 0.015649163 -s 0 -d 4 -p tcp -e 40 -c 2 -a 0 -i 0 -k RTR
h -t 0.015649163 -s 0 -d 4 -p tcp -e 40 -c 2 -a 0 -i 0 -k RTR
r -t 0.017634349 -s 4 -d 4 -p tcp -e 40 -c 2 -a 0 -i 0 -k AGT
+ -t 0.017634349 -s 4 -d -1 -p ack -e 40 -c 2 -a 0 -i 1 -k AGT 
- -t 0.017634349 -s 4 -d -1 -p ack -e 40 -c 2 -a 0 -i 1 -k AGT
h -t 0.017634349 -s 4 -d -1 -p ack -e 40 -c 2 -a 0 -i 1 -k AGT
+ -t 0.017634349 -s 4 -d 0 -p ack -e 40 -c 2 -a 0 -i 1 -k RTR 
- -t 0.017634349 -s 4 -d 0 -p ack -e 40 -c 2 -a 0 -i 1 -k RTR
h -t 0.017634349 -s 4 -d 0 -p ack -e 40 -c 2 -a 0 -i 1 -k RTR
r -t 0.019519534 -s 0 -d 0 -p ack -e 40 -c 2 -a 0 -i 1 -k AGT
+ -t 0.019519534 -s 0 -d -1 -p tcp -e 1540 -c 2 -a 0 -i 2 -k AGT 
- -t 0.019519534 -s 0 -d -1 -p tcp -e 1540 -c 2 -a 0 -i 2 -k AGT
h -t 0.019519534 -s 0 -d -1 -p tcp -e 1540 -c 2 -a 0 -i 2 -k AGT
+ -t 0.019519534 -s 0 -d -1 -p tcp -e 1540 -c 2 -a 0 -i 3 -k AGT 
- -t 0.019519534 -s 0 -d -1 -p tcp -e 1540 -c 2 -a 0 -i 3 -k AGT
h -t 0.019519534 -s 0 -d -1 -p tcp -e 1540 -c 2 -a 0 -i 3 -k AGT
+ -t 0.019519534 -s 0 -d 4 -p tcp -e 1540 -c 2 -a 0 -i 2 -k RTR 
- -t 0.019519534 -s 0 -d 4 -p tcp -e 1540 -c 2 -a 0 -i 2 -k RTR
h -t 0.019519534 -s 0 -d 4 -p tcp -e 1540 -c 2 -a 0 -i 2 -k RTR
+ -t 0.019519534 -s 0 -d 4 -p tcp -e 1540 -c 2 -a 0 -i 3 -k RTR 
- -t 0.019519534 -s 0 -d 4 -p tcp -e 1540 -c 2 -a 0 -i 3 -k RTR
h -t 0.019519534 -s 0 -d 4 -p tcp -e 1540 -c 2 -a 0 -i 3 -k RTR
r -t 0.033544720 -s 4 -d 4 -p tcp -e 1540 -c 2 -a 0 -i 2 -k AGT
+ -t 0.033544720 -s 4 -d -1 -p ack -e 40 -c 2 -a 0 -i 4 -k AGT 
- -t 0.033544720 -s 4 -d -1 -p ack -e 40 -c 2 -a 0 -i 4 -k AGT
h -t 0.033544720 -s 4 -d -1 -p ack -e 40 -c 2 -a 0 -i 4 -k AGT
+ -t 0.033544720 -s 4 -d 0 -p ack -e 40 -c 2 -a 0 -i 4 -k RTR 
- -t 0.033544720 -s 4 -d 0 -p ack -e 40 -c 2 -a 0 -i 4 -k RTR
h -t 0.033544720 -s 4 -d 0 -p ack -e 40 -c 2 -a 0 -i 4 -k RTR
r -t 0.035549906 -s 0 -d 0 -p ack -e 40 -c 2 -a 0 -i 4 -k AGT
+ -t 0.035549906 -s 0 -d -1 -p tcp -e 1540 -c 2 -a 0 -i 5 -k AGT 
- -t 0.035549906 -s 0 -d -1 -p tcp -e 1540 -c 2 -a 0 -i 5 -k AGT
h -t 0.035549906 -s 0 -d -1 -p tcp -e 1540 -c 2 -a 0 -i 5 -k AGT
+ -t 0.035549906 -s 0 -d -1 -p tcp -e 1540 -c 2 -a 0 -i 6 -k AGT 
- -t 0.035549906 -s 0 -d -1 -p tcp -e 1540 -c 2 -a 0 -i 6 -k AGT
h -t 0.035549906 -s 0 -d -1 -p tcp -e 1540 -c 2 -a 0 -i 6 -k AGT
+ -t 0.035549906 -s 0 -d 4 -p tcp -e 1540 -c 2 -a 0 -i 5 -k RTR 
- -t 0.035549906 -s 0 -d 4 -p tcp -e 1540 -c 2 -a 0 -i 5 -k RTR
h -t 0.035549906 -s 0 -d 4 -p tcp -e 1540 -c 2 -a 0 -i 5 -k RTR
+ -t 0.035549906 -s 0 -d 4 -p tcp -e 1540 -c 2 -a 0 -i 6 -k RTR 
- -t 0.035549906 -s 0 -d 4 -p tcp -e 1540 -c 2 -a 0 -i 6 -k RTR
h -t 0.035549906 -s 0 -d 4 -p tcp -e 1540 -c 2 -a 0 -i 6 -k RTR
r -t 0.049475092 -s 4 -d 4 -p tcp -e 1540 -c 2 -a 0 -i 3 -k AGT
+ -t 0.049475092 -s 4 -d -1 -p ack -e 40 -c 2 -a 0 -i 7 -k AGT 
- -t 0.049475092 -s 4 -d -1 -p ack -e 40 -c 2 -a 0 -i 7 -k AGT
h -t 0.049475092 -s 4 -d -1 -p ack -e 40 -c 2 -a 0 -i 7 -k AGT
+ -t 0.049475092 -s 4 -d 0 -p ack -e 40 -c 2 -a 0 -i 7 -k RTR 
- -t 0.049475092 -s 4 -d 0 -p ack -e 40 -c 2 -a 0 -i 7 -k RTR
h -t 0.049475092 -s 4 -d 0 -p ack -e 40 -c 2 -a 0 -i 7 -k RTR
r -t 0.063340674 -s 4 -d 4 -p tcp -e 1540 -c 2 -a 0 -i 5 -k AGT
+ -t 0.063340674 -s 4 -d -1 -p ack -e 40 -c 2 -a 0 -i 8 -k AGT 
- -t 0.063340674 -s 4 -d -1 -p ack -e 40 -c 2 -a 0 -i 8 -k AGT
h -t 0.063340674 -s 4 -d -1 -p ack -e 40 -c 2 -a 0 -i 8 -k AGT
+ -t 0.063340674 -s 4 -d 0 -p ack -e 40 -c 2 -a 0 -i 8 -k RTR 
- -t 0.063340674 -s 4 -d 0 -p ack -e 40 -c 2 -a 0 -i 8 -k RTR
h -t 0.063340674 -s 4 -d 0 -p ack -e 40 -c 2 -a 0 -i 8 -k RTR
r -t 0.065285860 -s 0 -d 0 -p ack -e 40 -c 2 -a 0 -i 7 -k AGT
+ -t 0.065285860 -s 0 -d -1 -p tcp -e 1540 -c 2 -a 0 -i 9 -k AGT 
- -t 0.065285860 -s 0 -d -1 -p tcp -e 1540 -c 2 -a 0 -i 9 -k AGT
h -t 0.065285860 -s 0 -d -1 -p tcp -e 1540 -c 2 -a 0 -i 9 -k AGT
+ -t 0.065285860 -s 0 -d -1 -p tcp -e 1540 -c 2 -a 0 -i 10 -k AGT 
- -t 0.065285860 -s 0 -d -1 -p tcp -e 1540 -c 2 -a 0 -i 10 -k AGT
h -t 0.065285860 -s 0 -d -1 -p tcp -e 1540 -c 2 -a 0 -i 10 -k AGT
+ -t 0.065285860 -s 0 -d 4 -p tcp -e 1540 -c 2 -a 0 -i 9 -k RTR 
- -t 0.065285860 -s 0 -d 4 -p tcp -e 1540 -c 2 -a 0 -i 9 -k RTR
h -t 0.065285860 -s 0 -d 4 -p tcp -e 1540 -c 2 -a 0 -i 9 -k RTR
+ -t 0.065285860 -s 0 -d 4 -p tcp -e 1540 -c 2 -a 0 -i 10 -k RTR 
- -t 0.065285860 -s 0 -d 4 -p tcp -e 1540 -c 2 -a 0 -i 10 -k RTR
h -t 0.065285860 -s 0 -d 4 -p tcp -e 1540 -c 2 -a 0 -i 10 -k RTR
r -t 0.067271441 -s 0 -d 0 -p ack -e 40 -c 2 -a 0 -i 8 -k AGT
+ -t 0.067271441 -s 0 -d -1 -p tcp -e 1540 -c 2 -a 0 -i 11 -k AGT 
- -t 0.067271441 -s 0 -d -1 -p tcp -e 1540 -c 2 -a 0 -i 11 -k AGT
h -t 0.067271441 -s 0 -d -1 -p tcp -e 1540 -c 2 -a 0 -i 11 -k AGT
+ -t 0.067271441 -s 0 -d -1 -p tcp -e 1540 -c 2 -a 0 -i 12 -k AGT 
- -t 0.067271441 -s 0 -d -1 -p tcp -e 1540 -c 2 -a 0 -i 12 -k AGT
h -t 0.067271441 -s 0 -d -1 -p tcp -e 1540 -c 2 -a 0 -i 12 -k AGT
+ -t 0.067271441 -s 0 -d 4 -p tcp -e 1540 -c 2 -a 0 -i 11 -k RTR 
- -t 0.067271441 -s 0 -d 4 -p tcp -e 1540 -c 2 -a 0 -i 11 -k RTR
h -t 0.067271441 -s 0 -d 4 -p tcp -e 1540 -c 2 -a 0 -i 11 -k RTR
+ -t 0.067271441 -s 0 -d 4 -p tcp -e 1540 -c 2 -a 0 -i 12 -k RTR 
- -t 0.067271441 -s 0 -d 4 -p tcp -e 1540 -c 2 -a 0 -i 12 -k RTR
h -t 0.067271441 -s 0 -d 4 -p tcp -e 1540 -c 2 -a 0 -i 12 -k RTR
r -t 0.081356627 -s 4 -d 4 -p tcp -e 1540 -c 2 -a 0 -i 6 -k AGT
+ -t 0.081356627 -s 4 -d -1 -p ack -e 40 -c 2 -a 0 -i 13 -k AGT 
- -t 0.081356627 -s 4 -d -1 -p ack -e 40 -c 2 -a 0 -i 13 -k AGT
h -t 0.081356627 -s 4 -d -1 -p ack -e 40 -c 2 -a 0 -i 13 -k AGT
+ -t 0.081356627 -s 4 -d 0 -p ack -e 40 -c 2 -a 0 -i 13 -k RTR 
- -t 0.081356627 -s 4 -d 0 -p ack -e 40 -c 2 -a 0 -i 13 -k RTR
h -t 0.081356627 -s 4 -d 0 -p ack -e 40 -c 2 -a 0 -i 13 -k RTR
r -t 0.083281813 -s 0 -d 0 -p ack -e 40 -c 2 -a 0 -i 13 -k AGT
+ -t 0.083281813 -s 0 -d -1 -p tcp -e 1540 -c 2 -a 0 -i 14 -k AGT 
- -t 0.083281813 -s 0 -d -1 -p tcp -e 1540 -c 2 -a 0 -i 14 -k AGT
h -t 0.083281813 -s 0 -d -1 -p tcp -e 1540 -c 2 -a 0 -i 14 -k AGT
+ -t 0.083281813 -s 0 -d -1 -p tcp -e 1540 -c 2 -a 0 -i 15 -k AGT 
- -t 0.083281813 -s 0 -d -1 -p tcp -e 1540 -c 2 -a 0 -i 15 -k AGT
h -t 0.083281813 -s 0 -d -1 -p tcp -e 1540 -c 2 -a 0 -i 15 -k AGT
+ -t 0.083281813 -s 0 -d 4 -p tcp -e 1540 -c 2 -a 0 -i 14 -k RTR 
- -t 0.083281813 -s 0 -d 4 -p tcp -e 1540 -c 2 -a 0 -i 14 -k RTR
h -t 0.083281813 -s 0 -d 4 -p tcp -e 1540 -c 2 -a 0 -i 14 -k RTR
+ -t 0.083281813 -s 0 -d 4 -p tcp -e 1540 -c 2 -a 0 -i 15 -k RTR 
- -t 0.083281813 -s 0 -d 4 -p tcp -e 1540 -c 2 -a 0 -i 15 -k RTR
h -t 0.083281813 -s 0 -d 4 -p tcp -e 1540 -c 2 -a 0 -i 15 -k RTR
r -t 0.097246999 -s 4 -d 4 -p tcp -e 1540 -c 2 -a 0 -i 9 -k AGT
+ -t 0.097246999 -s 4 -d -1 -p ack -e 40 -c 2 -a 0 -i 16 -k AGT 
- -t 0.097246999 -s 4 -d -1 -p ack -e 40 -c 2 -a 0 -i 16 -k AGT
h -t 0.097246999 -s 4 -d -1 -p ack -e 40 -c 2 -a 0 -i 16 -k AGT
+ -t 0.097246999 -s 4 -d 0 -p ack -e 40 -c 2 -a 0 -i 16 -k RTR 
- -t 0.097246999 -s 4 -d 0 -p ack -e 40 -c 2 -a 0 -i 16 -k RTR
h -t 0.097246999 -s 4 -d 0 -p ack -e 40 -c 2 -a 0 -i 16 -k RTR
r -t 0.099092185 -s 0 -d 0 -p ack -e 40 -c 2 -a 0 -i 16 -k AGT
+ -t 0.099092185 -s 0 -d -1 -p tcp -e 1540 -c 2 -a 0 -i 17 -k AGT 
- -t 0.099092185 -s 0 -d -1 -p tcp -e 1540 -c 2 -a 0 -i 17 -k AGT
h -t 0.099092185 -s 0 -d -1 -p tcp -e 1540 -c 2 -a 0 -i 17 -k AGT
+ -t 0.099092185 -s 0 -d -1 -p tcp -e 1540 -c 2 -a 0 -i 18 -k AGT 
- -t 0.099092185 -s 0 -d -1 -p tcp -e 1540 -c 2 -a 0 -i 18 -k AGT
h -t 0.099092185 -s 0 -d -1 -p tcp -e 1540 -c 2 -a 0 -i 18 -k AGT
+ -t 0.099092185 -s 0 -d 4 -p tcp -e 1540 -c 2 -a 0 -i 17 -k RTR 
- -t 0.099092185 -s 0 -d 4 -p tcp -e 1540 -c 2 -a 0 -i 17 -k RTR
h -t 0.099092185 -s 0 -d 4 -p tcp -e 1540 -c 2 -a 0 -i 17 -k RTR
+ -t 0.099092185 -s 0 -d 4 -p tcp -e 1540 -c 2 -a 0 -i 18 -k RTR 
- -t 0.099092185 -s 0 -d 4 -p tcp -e 1540 -c 2 -a 0 -i 18 -k RTR
h -t 0.099092185 -s 0 -d 4 -p tcp -e 1540 -c 2 -a 0 -i 18 -k RTR
r -t 0.113377371 -s 4 -d 4 -p tcp -e 1540 -c 2 -a 0 -i 10 -k AGT
+ -t 0.113377371 -s 4 -d -1 -p ack -e 40 -c 2 -a 0 -i 19 -k AGT 
- -t 0.113377371 -s 4 -d -1 -p ack -e 40 -c 2 -a 0 -i 19 -k AGT
h -t 0.113377371 -s 4 -d -1 -p ack -e 40 -c 2 -a 0 -i 19 -k AGT
+ -t 0.113377371 -s 4 -d 0 -p ack -e 40 -c 2 -a 0 -i 19 -k RTR 
- -t 0.113377371 -s 4 -d 0 -p ack -e 40 -c 2 -a 0 -i 19 -k RTR
h -t 0.113377371 -s 4 -d 0 -p ack -e 40 -c 2 -a 0 -i 19 -k RTR
r -t 0.127402952 -s 4 -d 4 -p tcp -e 1540 -c 2 -a 0 -i 11 -k AGT
+ -t 0.127402952 -s 4 -d -1 -p ack -e 40 -c 2 -a 0 -i 20 -k AGT 
- -t 0.127402952 -s 4 -d -1 -p ack -e 40 -c 2 -a 0 -i 20 -k AGT
h -t 0.127402952 -s 4 -d -1 -p ack -e 40 -c 2 -a 0 -i 20 -k AGT
+ -t 0.127402952 -s 4 -d 0 -p ack -e 40 -c 2 -a 0 -i 20 -k RTR 
- -t 0.127402952 -s 4 -d 0 -p ack -e 40 -c 2 -a 0 -i 20 -k RTR
h -t 0.127402952 -s 4 -d 0 -p ack -e 40 -c 2 -a 0 -i 20 -k RTR
r -t 0.129348138 -s 0 -d 0 -p ack -e 40 -c 2 -a 0 -i 19 -k AGT
+ -t 0.129348138 -s 0 -d -1 -p tcp -e 1540 -c 2 -a 0 -i 21 -k AGT 
- -t 0.129348138 -s 0 -d -1 -p tcp -e 1540 -c 2 -a 0 -i 21 -k AGT
h -t 0.129348138 -s 0 -d -1 -p tcp -e 1540 -c 2 -a 0 -i 21 -k AGT
+ -t 0.129348138 -s 0 -d -1 -p tcp -e 1540 -c 2 -a 0 -i 22 -k AGT 
- -t 0.129348138 -s 0 -d -1 -p tcp -e 1540 -c 2 -a 0 -i 22 -k AGT
h -t 0.129348138 -s 0 -d -1 -p tcp -e 1540 -c 2 -a 0 -i 22 -k AGT
+ -t 0.129348138 -s 0 -d 4 -p tcp -e 1540 -c 2 -a 0 -i 21 -k RTR 
- -t 0.129348138 -s 0 -d 4 -p tcp -e 1540 -c 2 -a 0 -i 21 -k RTR
h -t 0.129348138 -s 0 -d 4 -p tcp -e 1540 -c 2 -a 0 -i 21 -k RTR
+ -t 0.129348138 -s 0 -d 4 -p tcp -e 1540 -c 2 -a 0 -i 22 -k RTR 
- -t 0.129348138 -s 0 -d 4 -p tcp -e 1540 -c 2 -a 0 -i 22 -k RTR
h -t 0.129348138 -s 0 -d 4 -p tcp -e 1540 -c 2 -a 0 -i 22 -k RTR
r -t 0.131193719 -s 0 -d 0 -p ack -e 40 -c 2 -a 0 -i 20 -k AGT
+ -t 0.131193719 -s 0 -d -1 -p tcp -e 1540 -c 2 -a 0 -i 23 -k AGT 
- -t 0.131193719 -s 0 -d -1 -p tcp -e 1540 -c 2 -a 0 -i 23 -k AGT
h -t 0.131193719 -s 0 -d -1 -p tcp -e 1540 -c 2 -a 0 -i 23 -k AGT
+ -t 0.131193719 -s 0 -d -1 -p tcp -e 1540 -c 2 -a 0 -i 24 -k AGT 
- -t 0.131193719 -s 0 -d -1 -p tcp -e 1540 -c 2 -a 0 -i 24 -k AGT
h -t 0.131193719 -s 0 -d -1 -p tcp -e 1540 -c 2 -a 0 -i 24 -k AGT
+ -t 0.131193719 -s 0 -d 4 -p tcp -e 1540 -c 2 -a 0 -i 23 -k RTR 
- -t 0.131193719 -s 0 -d 4 -p tcp -e 1540 -c 2 -a 0 -i 23 -k RTR
h -t 0.131193719 -s 0 -d 4 -p tcp -e 1540 -c 2 -a 0 -i 23 -k RTR
+ -t 0.131193719 -s 0 -d 4 -p tcp -e 1540 -c 2 -a 0 -i 24 -k RTR 
- -t 0.131193719 -s 0 -d 4 -p tcp -e 1540 -c 2 -a 0 -i 24 -k RTR
h -t 0.131193719 -s 0 -d 4 -p tcp -e 1540 -c 2 -a 0 -i 24 -k RTR
r -t 0.145098905 -s 4 -d 4 -p tcp -e 1540 -c 2 -a 0 -i 12 -k AGT
+ -t 0.145098905 -s 4 -d -1 -p ack -e 40 -c 2 -a 0 -i 25 -k AGT 
- -t 0.145098905 -s 4 -d -1 -p ack -e 40 -c 2 -a 0 -i 25 -k AGT
h -t 0.145098905 -s 4 -d -1 -p ack -e 40 -c 2 -a 0 -i 25 -k AGT
+ -t 0.145098905 -s 4 -d 0 -p ack -e 40 -c 2 -a 0 -i 25 -k RTR 
- -t 0.145098905 -s 4 -d 0 -p ack -e 40 -c 2 -a 0 -i 25 -k RTR
h -t 0.145098905 -s 4 -d 0 -p ack -e 40 -c 2 -a 0 -i 25 -k RTR
r -t 0.147104091 -s 0 -d 0 -p ack -e 40 -c 2 -a 0 -i 25 -k AGT
+ -t 0.147104091 -s 0 -d -1 -p tcp -e 1540 -c 2 -a 0 -i 26 -k AGT 
- -t 0.147104091 -s 0 -d -1 -p tcp -e 1540 -c 2 -a 0 -i 26 -k AGT
h -t 0.147104091 -s 0 -d -1 -p tcp -e 1540 -c 2 -a 0 -i 26 -k AGT
+ -t 0.147104091 -s 0 -d -1 -p tcp -e 1540 -c 2 -a 0 -i 27 -k AGT 
- -t 0.147104091 -s 0 -d -1 -p tcp -e 1540 -c 2 -a 0 -i 27 -k AGT
h -t 0.147104091 -s 0 -d -1 -p tcp -e 1540 -c 2 -a 0 -i 27 -k AGT
+ -t 0.147104091 -s 0 -d 4 -p tcp -e 1540 -c 2 -a 0 -i 26 -k RTR 
- -t 0.147104091 -s 0 -d 4 -p tcp -e 1540 -c 2 -a 0 -i 26 -k RTR
h -t 0.147104091 -s 0 -d 4 -p tcp -e 1540 -c 2 -a 0 -i 26 -k RTR
+ -t 0.147104091 -s 0 -d 4 -p tcp -e 1540 -c 2 -a 0 -i 27 -k RTR 
- -t 0.147104091 -s 0 -d 4 -p tcp -e 1540 -c 2 -a 0 -i 27 -k RTR
h -t 0.147104091 -s 0 -d 4 -p tcp -e 1540 -c 2 -a 0 -i 27 -k RTR
r -t 0.161189277 -s 4 -d 4 -p tcp -e 1540 -c 2 -a 0 -i 14 -k AGT
+ -t 0.161189277 -s 4 -d -1 -p ack -e 40 -c 2 -a 0 -i 28 -k AGT 
- -t 0.161189277 -s 4 -d -1 -p ack -e 40 -c 2 -a 0 -i 28 -k AGT
h -t 0.161189277 -s 4 -d -1 -p ack -e 40 -c 2 -a 0 -i 28 -k AGT
+ -t 0.161189277 -s 4 -d 0 -p ack -e 40 -c 2 -a 0 -i 28 -k RTR 
- -t 0.161189277 -s 4 -d 0 -p ack -e 40 -c 2 -a 0 -i 28 -k RTR
h -t 0.161189277 -s 4 -d 0 -p ack -e 40 -c 2 -a 0 -i 28 -k RTR
r -t 0.175414858 -s 4 -d 4 -p tcp -e 1540 -c 2 -a 0 -i 15 -k AGT
+ -t 0.175414858 -s 4 -d -1 -p ack -e 40 -c 2 -a 0 -i 29 -k AGT 
- -t 0.175414858 -s 4 -d -1 -p ack -e 40 -c 2 -a 0 -i 29 -k AGT
h -t 0.175414858 -s 4 -d -1 -p ack -e 40 -c 2 -a 0 -i 29 -k AGT
+ -t 0.175414858 -s 4 -d 0 -p ack -e 40 -c 2 -a 0 -i 29 -k RTR 
- -t 0.175414858 -s 4 -d 0 -p ack -e 40 -c 2 -a 0 -i 29 -k RTR
h -t 0.175414858 -s 4 -d 0 -p ack -e 40 -c 2 -a 0 -i 29 -k RTR
r -t 0.177420044 -s 0 -d 0 -p ack -e 40 -c 2 -a 0 -i 28 -k AGT
+ -t 0.177420044 -s 0 -d -1 -p tcp -e 1540 -c 2 -a 0 -i 30 -k AGT 
- -t 0.177420044 -s 0 -d -1 -p tcp -e 1540 -c 2 -a 0 -i 30 -k AGT
h -t 0.177420044 -s 0 -d -1 -p tcp -e 1540 -c 2 -a 0 -i 30 -k AGT
+ -t 0.177420044 -s 0 -d -1 -p tcp -e 1540 -c 2 -a 0 -i 31 -k AGT 
- -t 0.177420044 -s 0 -d -1 -p tcp -e 1540 -c 2 -a 0 -i 31 -k AGT
h -t 0.177420044 -s 0 -d -1 -p tcp -e 1540 -c 2 -a 0 -i 31 -k AGT
+ -t 0.177420044 -s 0 -d 4 -p tcp -e 1540 -c 2 -a 0 -i 30 -k RTR 
- -t 0.177420044 -s 0 -d 4 -p tcp -e 1540 -c 2 -a 0 -i 30 -k RTR
h -t 0.177420044 -s 0 -d 4 -p tcp -e 1540 -c 2 -a 0 -i 30 -k RTR
+ -t 0.177420044 -s 0 -d 4 -p tcp -e 1540 -c 2 -a 0 -i 31 -k RTR 
- -t 0.177420044 -s 0 -d 4 -p tcp -e 1540 -c 2 -a 0 -i 31 -k RTR
h -t 0.177420044 -s 0 -d 4 -p tcp -e 1540 -c 2 -a 0 -i 31 -k RTR
r -t 0.193392021 -s 4 -d 4 -p tcp -e 1540 -c 2 -a 0 -i 17 -k AGT
+ -t 0.193392021 -s 4 -d -1 -p ack -e 40 -c 2 -a 0 -i 32 -k AGT 
- -t 0.193392021 -s 4 -d -1 -p ack -e 40 -c 2 -a 0 -i 32 -k AGT
h -t 0.193392021 -s 4 -d -1 -p ack -e 40 -c 2 -a 0 -i 32 -k AGT
+ -t 0.193392021 -s 4 -d 0 -p ack -e 40 -c 2 -a 0 -i 32 -k RTR 
- -t 0.193392021 -s 4 -d 0 -p ack -e 40 -c 2 -a 0 -i 32 -k RTR
h -t 0.193392021 -s 4 -d 0 -p ack -e 40 -c 2 -a 0 -i 32 -k RTR
r -t 0.195317207 -s 0 -d 0 -p ack -e 40 -c 2 -a 0 -i 29 -k AGT
+ -t 0.195317207 -s 0 -d -1 -p tcp -e 1540 -c 2 -a 0 -i 33 -k AGT 
- -t 0.195317207 -s 0 -d -1 -p tcp -e 1540 -c 2 -a 0 -i 33 -k AGT
h -t 0.195317207 -s 0 -d -1 -p tcp -e 1540 -c 2 -a 0 -i 33 -k AGT
+ -t 0.195317207 -s 0 -d -1 -p tcp -e 1540 -c 2 -a 0 -i 34 -k AGT 
- -t 0.195317207 -s 0 -d -1 -p tcp -e 1540 -c 2 -a 0 -i 34 -k AGT
h -t 0.195317207 -s 0 -d -1 -p tcp -e 1540 -c 2 -a 0 -i 34 -k AGT
+ -t 0.195317207 -s 0 -d 4 -p tcp -e 1540 -c 2 -a 0 -i 33 -k RTR 
- -t 0.195317207 -s 0 -d 4 -p tcp -e 1540 -c 2 -a 0 -i 33 -k RTR
h -t 0.195317207 -s 0 -d 4 -p tcp -e 1540 -c 2 -a 0 -i 33 -k RTR
+ -t 0.195317207 -s 0 -d 4 -p tcp -e 1540 -c 2 -a 0 -i 34 -k RTR 
- -t 0.195317207 -s 0 -d 4 -p tcp -e 1540 -c 2 -a 0 -i 34 -k RTR
h -t 0.195317207 -s 0 -d 4 -p tcp -e 1540 -c 2 -a 0 -i 34 -k RTR
r -t 0.197282788 -s 0 -d 0 -p ack -e 40 -c 2 -a 0 -i 32 -k AGT
+ -t 0.197282788 -s 0 -d -1 -p tcp -e 1540 -c 2 -a 0 -i 35 -k AGT 
- -t 0.197282788 -s 0 -d -1 -p tcp -e 1540 -c 2 -a 0 -i 35 -k AGT
h -t 0.197282788 -s 0 -d -1 -p tcp -e 1540 -c 2 -a 0 -i 35 -k AGT
+ -t 0.197282788 -s 0 -d -1 -p tcp -e 1540 -c 2 -a 0 -i 36 -k AGT 
- -t 0.197282788 -s 0 -d -1 -p tcp -e 1540 -c 2 -a 0 -i 36 -k AGT
h -t 0.197282788 -s 0 -d -1 -p tcp -e 1540 -c 2 -a 0 -i 36 -k AGT
+ -t 0.197282788 -s 0 -d 4 -p tcp -e 1540 -c 2 -a 0 -i 35 -k RTR 
- -t 0.197282788 -s 0 -d 4 -p tcp -e 1540 -c 2 -a 0 -i 35 -k RTR
h -t 0.197282788 -s 0 -d 4 -p tcp -e 1540 -c 2 -a 0 -i 35 -k RTR
+ -t 0.197282788 -s 0 -d 4 -p tcp -e 1540 -c 2 -a 0 -i 36 -k RTR 
- -t 0.197282788 -s 0 -d 4 -p tcp -e 1540 -c 2 -a 0 -i 36 -k RTR
h -t 0.197282788 -s 0 -d 4 -p tcp -e 1540 -c 2 -a 0 -i 36 -k RTR
r -t 0.211227974 -s 4 -d 4 -p tcp -e 1540 -c 2 -a 0 -i 18 -k AGT
+ -t 0.211227974 -s 4 -d -1 -p ack -e 40 -c 2 -a 0 -i 37 -k AGT 
- -t 0.211227974 -s 4 -d -1 -p ack -e 40 -c 2 -a 0 -i 37 -k AGT
h -t 0.211227974 -s 4 -d -1 -p ack -e 40 -c 2 -a 0 -i 37 -k AGT
+ -t 0.211227974 -s 4 -d 0 -p ack -e 40 -c 2 -a 0 -i 37 -k RTR 
- -t 0.211227974 -s 4 -d 0 -p ack -e 40 -c 2 -a 0 -i 37 -k RTR
h -t 0.211227974 -s 4 -d 0 -p ack -e 40 -c 2 -a 0 -i 37 -k RTR
r -t 0.225253555 -s 4 -d 4 -p tcp -e 1540 -c 2 -a 0 -i 21 -k AGT
+ -t 0.225253555 -s 4 -d -1 -p ack -e 40 -c 2 -a 0 -i 38 -k AGT 
- -t 0.225253555 -s 4 -d -1 -p ack -e 40 -c 2 -a 0 -i 38 -k AGT
h -t 0.225253555 -s 4 -d -1 -p ack -e 40 -c 2 -a 0 -i 38 -k AGT
+ -t 0.225253555 -s 4 -d 0 -p ack -e 40 -c 2 -a 0 -i 38 -k RTR 
- -t 0.225253555 -s 4 -d 0 -p ack -e 40 -c 2 -a 0 -i 38 -k RTR
h -t 0.225253555 -s 4 -d 0 -p ack -e 40 -c 2 -a 0 -i 38 -k RTR
r -t 0.227158741 -s 0 -d 0 -p ack -e 40 -c 2 -a 0 -i 37 -k AGT
+ -t 0.227158741 -s 0 -d -1 -p tcp -e 1540 -c 2 -a 0 -i 39 -k AGT 
- -t 0.227158741 -s 0 -d -1 -p tcp -e 1540 -c 2 -a 0 -i 39 -k AGT
h -t 0.227158741 -s 0 -d -1 -p tcp -e 1540 -c 2 -a 0 -i 39 -k AGT
+ -t 0.227158741 -s 0 -d -1 -p tcp -e 1540 -c 2 -a 0 -i 40 -k AGT 
- -t 0.227158741 -s 0 -d -1 -p tcp -e 1540 -c 2 -a 0 -i 40 -k AGT
h -t 0.227158741 -s 0 -d -1 -p tcp -e 1540 -c 2 -a 0 -i 40 -k AGT
+ -t 0.227158741 -s 0 -d 4 -p tcp -e 1540 -c 2 -a 0 -i 39 -k RTR 
- -t 0.227158741 -s 0 -d 4 -p tcp -e 1540 -c 2 -a 0 -i 39 -k RTR
h -t 0.227158741 -s 0 -d 4 -p tcp -e 1540 -c 2 -a 0 -i 39 -k RTR
+ -t 0.227158741 -s 0 -d 4 -p tcp -e 1540 -c 2 -a 0 -i 40 -k RTR 
- -t 0.227158741 -s 0 -d 4 -p tcp -e 1540 -c 2 -a 0 -i 40 -k RTR
h -t 0.227158741 -s 0 -d 4 -p tcp -e 1540 -c 2 -a 0 -i 40 -k RTR
r -t 0.241023927 -s 4 -d 4 -p tcp -e 1540 -c 2 -a 0 -i 22 -k AGT
+ -t 0.241023927 -s 4 -d -1 -p ack -e 40 -c 2 -a 0 -i 41 -k AGT 
- -t 0.241023927 -s 4 -d -1 -p ack -e 40 -c 2 -a 0 -i 41 -k AGT
h -t 0.241023927 -s 4 -d -1 -p ack -e 40 -c 2 -a 0 -i 41 -k AGT
+ -t 0.241023927 -s 4 -d 0 -p ack -e 40 -c 2 -a 0 -i 41 -k RTR 
- -t 0.241023927 -s 4 -d 0 -p ack -e 40 -c 2 -a 0 -i 41 -k RTR
h -t 0.241023927 -s 4 -d 0 -p ack -e 40 -c 2 -a 0 -i 41 -k RTR
r -t 0.255069509 -s 4 -d 4 -p tcp -e 1540 -c 2 -a 0 -i 23 -k AGT
+ -t 0.255069509 -s 4 -d -1 -p ack -e 40 -c 2 -a 0 -i 42 -k AGT 
- -t 0.255069509 -s 4 -d -1 -p ack -e 40 -c 2 -a 0 -i 42 -k AGT
h -t 0.255069509 -s 4 -d -1 -p ack -e 40 -c 2 -a 0 -i 42 -k AGT
+ -t 0.255069509 -s 4 -d 0 -p ack -e 40 -c 2 -a 0 -i 42 -k RTR 
- -t 0.255069509 -s 4 -d 0 -p ack -e 40 -c 2 -a 0 -i 42 -k RTR
h -t 0.255069509 -s 4 -d 0 -p ack -e 40 -c 2 -a 0 -i 42 -k RTR
r -t 0.269095090 -s 4 -d 4 -p tcp -e 1540 -c 2 -a 0 -i 24 -k AGT
+ -t 0.269095090 -s 4 -d -1 -p ack -e 40 -c 2 -a 0 -i 43 -k AGT 
- -t 0.269095090 -s 4 -d -1 -p ack -e 40 -c 2 -a 0 -i 43 -k AGT
h -t 0.269095090 -s 4 -d -1 -p ack -e 40 -c 2 -a 0 -i 43 -k AGT
+ -t 0.269095090 -s 4 -d 0 -p ack -e 40 -c 2 -a 0 -i 43 -k RTR 
- -t 0.269095090 -s 4 -d 0 -p ack -e 40 -c 2 -a 0 -i 43 -k RTR
h -t 0.269095090 -s 4 -d 0 -p ack -e 40 -c 2 -a 0 -i 43 -k RTR
r -t 0.270980276 -s 0 -d 0 -p ack -e 40 -c 2 -a 0 -i 38 -k AGT
+ -t 0.270980276 -s 0 -d -1 -p tcp -e 1540 -c 2 -a 0 -i 44 -k AGT 
- -t 0.270980276 -s 0 -d -1 -p tcp -e 1540 -c 2 -a 0 -i 44 -k AGT
h -t 0.270980276 -s 0 -d -1 -p tcp -e 1540 -c 2 -a 0 -i 44 -k AGT
+ -t 0.270980276 -s 0 -d -1 -p tcp -e 1540 -c 2 -a 0 -i 45 -k AGT 
- -t 0.270980276 -s 0 -d -1 -p tcp -e 1540 -c 2 -a 0 -i 45 -k AGT
h -t 0.270980276 -s 0 -d -1 -p tcp -e 1540 -c 2 -a 0 -i 45 -k AGT
+ -t 0.270980276 -s 0 -d 4 -p tcp -e 1540 -c 2 -a 0 -i 44 -k RTR 
- -t 0.270980276 -s 0 -d 4 -p tcp -e 1540 -c 2 -a 0 -i 44 -k RTR
h -t 0.270980276 -s 0 -d 4 -p tcp -e 1540 -c 2 -a 0 -i 44 -k RTR
+ -t 0.270980276 -s 0 -d 4 -p tcp -e 1540 -c 2 -a 0 -i 45 -k RTR 
- -t 0.270980276 -s 0 -d 4 -p tcp -e 1540 -c 2 -a 0 -i 45 -k RTR
h -t 0.270980276 -s 0 -d 4 -p tcp -e 1540 -c 2 -a 0 -i 45 -k RTR
r -t 0.272865857 -s 0 -d 0 -p ack -e 40 -c 2 -a 0 -i 41 -k AGT
+ -t 0.272865857 -s 0 -d -1 -p tcp -e 1540 -c 2 -a 0 -i 46 -k AGT 
- -t 0.272865857 -s 0 -d -1 -p tcp -e 1540 -c 2 -a 0 -i 46 -k AGT
h -t 0.272865857 -s 0 -d -1 -p tcp -e 1540 -c 2 -a 0 -i 46 -k AGT
+ -t 0.272865857 -s 0 -d -1 -p tcp -e 1540 -c 2 -a 0 -i 47 -k AGT 
- -t 0.272865857 -s 0 -d -1 -p tcp -e 1540 -c 2 -a 0 -i 47 -k AGT
h -t 0.272865857 -s 0 -d -1 -p tcp -e 1540 -c 2 -a 0 -i 47 -k AGT
+ -t 0.272865857 -s 0 -d 4 -p tcp -e 1540 -c 2 -a 0 -i 46 -k RTR 
- -t 0.272865857 -s 0 -d 4 -p tcp -e 1540 -c 2 -a 0 -i 46 -k RTR
h -t 0.272865857 -s 0 -d 4 -p tcp -e 1540 -c 2 -a 0 -i 46 -k RTR
+ -t 0.272865857 -s 0 -d 4 -p tcp -e 1540 -c 2 -a 0 -i 47 -k RTR 
- -t 0.272865857 -s 0 -d 4 -p tcp -e 1540 -c 2 -a 0 -i 47 -k RTR
h -t 0.272865857 -s 0 -d 4 -p tcp -e 1540 -c 2 -a 0 -i 47 -k RTR
r -t 0.274811438 -s 0 -d 0 -p ack -e 40 -c 2 -a 0 -i 42 -k AGT
+ -t 0.274811438 -s 0 -d -1 -p tcp -e 1540 -c 2 -a 0 -i 48 -k AGT 
- -t 0.274811438 -s 0 -d -1 -p tcp -e 1540 -c 2 -a 0 -i 48 -k AGT
h -t 0.274811438 -s 0 -d -1 -p tcp -e 1540 -c 2 -a 0 -i 48 -k AGT
+ -t 0.274811438 -s 0 -d -1 -p tcp -e 1540 -c 2 -a 0 -i 49 -k AGT 
- -t 0.274811438 -s 0 -d -1 -p tcp -e 1540 -c 2 -a 0 -i 49 -k AGT
h -t 0.274811438 -s 0 -d -1 -p tcp -e 1540 -c 2 -a 0 -i 49 -k AGT
+ -t 0.274811438 -s 0 -d 4 -p tcp -e 1540 -c 2 -a 0 -i 48 -k RTR 
- -t 0.274811438 -s 0 -d 4 -p tcp -e 1540 -c 2 -a 0 -i 48 -k RTR
h -t 0.274811438 -s 0 -d 4 -p tcp -e 1540 -c 2 -a 0 -i 48 -k RTR
+ -t 0.274811438 -s 0 -d 4 -p tcp -e 1540 -c 2 -a 0 -i 49 -k RTR 
- -t 0.274811438 -s 0 -d 4 -p tcp -e 1540 -c 2 -a 0 -i 49 -k RTR
h -t 0.274811438 -s 0 -d 4 -p tcp -e 1540 -c 2 -a 0 -i 49 -k RTR
r -t 0.277783020 -s 0 -d 0 -p ack -e 40 -c 2 -a 0 -i 43 -k AGT
+ -t 0.277783020 -s 0 -d -1 -p tcp -e 1540 -c 2 -a 0 -i 50 -k AGT 
- -t 0.277783020 -s 0 -d -1 -p tcp -e 1540 -c 2 -a 0 -i 50 -k AGT
h -t 0.277783020 -s 0 -d -1 -p tcp -e 1540 -c 2 -a 0 -i 50 -k AGT
+ -t 0.277783020 -s 0 -d -1 -p tcp -e 1540 -c 2 -a 0 -i 51 -k AGT 
- -t 0.277783020 -s 0 -d -1 -p tcp -e 1540 -c 2 -a 0 -i 51 -k AGT
h -t 0.277783020 -s 0 -d -1 -p tcp -e 1540 -c 2 -a 0 -i 51 -k AGT
+ -t 0.277783020 -s 0 -d 4 -p tcp -e 1540 -c 2 -a 0 -i 50 -k RTR 
- -t 0.277783020 -s 0 -d 4 -p tcp -e 1540 -c 2 -a 0 -i 50 -k RTR
h -t 0.277783020 -s 0 -d 4 -p tcp -e 1540 -c 2 -a 0 -i 50 -k RTR
+ -t 0.277783020 -s 0 -d 4 -p tcp -e 1540 -c 2 -a 0 -i 51 -k RTR 
- -t 0.277783020 -s 0 -d 4 -p tcp -e 1540 -c 2 -a 0 -i 51 -k RTR
h -t 0.277783020 -s 0 -d 4 -p tcp -e 1540 -c 2 -a 0 -i 51 -k RTR
r -t 0.292268206 -s 4 -d 4 -p tcp -e 1540 -c 2 -a 0 -i 26 -k AGT
+ -t 0.292268206 -s 4 -d -1 -p ack -e 40 -c 2 -a 0 -i 52 -k AGT 
- -t 0.292268206 -s 4 -d -1 -p ack -e 40 -c 2 -a 0 -i 52 -k AGT
h -t 0.292268206 -s 4 -d -1 -p ack -e 40 -c 2 -a 0 -i 52 -k AGT
+ -t 0.292268206 -s 4 -d 0 -p ack -e 40 -c 2 -a 0 -i 52 -k RTR 
- -t 0.292268206 -s 4 -d 0 -p ack -e 40 -c 2 -a 0 -i 52 -k RTR
h -t 0.292268206 -s 4 -d 0 -p ack -e 40 -c 2 -a 0 -i 52 -k RTR
r -t 0.294373392 -s 0 -d 0 -p ack -e 40 -c 2 -a 0 -i 52 -k AGT
+ -t 0.294373392 -s 0 -d -1 -p tcp -e 1540 -c 2 -a 0 -i 53 -k AGT 
- -t 0.294373392 -s 0 -d -1 -p tcp -e 1540 -c 2 -a 0 -i 53 -k AGT
h -t 0.294373392 -s 0 -d -1 -p tcp -e 1540 -c 2 -a 0 -i 53 -k AGT
+ -t 0.294373392 -s 0 -d -1 -p tcp -e 1540 -c 2 -a 0 -i 54 -k AGT 
- -t 0.294373392 -s 0 -d -1 -p tcp -e 1540 -c 2 -a 0 -i 54 -k AGT
h -t 0.294373392 -s 0 -d -1 -p tcp -e 1540 -c 2 -a 0 -i 54 -k AGT
+ -t 0.294373392 -s 0 -d 4 -p tcp -e 1540 -c 2 -a 0 -i 53 -k RTR 
- -t 0.294373392 -s 0 -d 4 -p tcp -e 1540 -c 2 -a 0 -i 53 -k RTR
h -t 0.294373392 -s 0 -d 4 -p tcp -e 1540 -c 2 -a 0 -i 53 -k RTR
+ -t 0.294373392 -s 0 -d 4 -p tcp -e 1540 -c 2 -a 0 -i 54 -k RTR 
- -t 0.294373392 -s 0 -d 4 -p tcp -e 1540 -c 2 -a 0 -i 54 -k RTR
h -t 0.294373392 -s 0 -d 4 -p tcp -e 1540 -c 2 -a 0 -i 54 -k RTR
r -t 0.308398578 -s 4 -d 4 -p tcp -e 1540 -c 2 -a 0 -i 27 -k AGT
+ -t 0.308398578 -s 4 -d -1 -p ack -e 40 -c 2 -a 0 -i 55 -k AGT 
- -t 0.308398578 -s 4 -d -1 -p ack -e 40 -c 2 -a 0 -i 55 -k AGT
h -t 0.308398578 -s 4 -d -1 -p ack -e 40 -c 2 -a 0 -i 55 -k AGT
+ -t 0.308398578 -s 4 -d 0 -p ack -e 40 -c 2 -a 0 -i 55 -k RTR 
- -t 0.308398578 -s 4 -d 0 -p ack -e 40 -c 2 -a 0 -i 55 -k RTR
h -t 0.308398578 -s 4 -d 0 -p ack -e 40 -c 2 -a 0 -i 55 -k RTR
r -t 0.310443763 -s 0 -d 0 -p ack -e 40 -c 2 -a 0 -i 55 -k AGT
+ -t 0.310443763 -s 0 -d -1 -p tcp -e 1540 -c 2 -a 0 -i 56 -k AGT 
- -t 0.310443763 -s 0 -d -1 -p tcp -e 1540 -c 2 -a 0 -i 56 -k AGT
h -t 0.310443763 -s 0 -d -1 -p tcp -e 1540 -c 2 -a 0 -i 56 -k AGT
+ -t 0.310443763 -s 0 -d -1 -p tcp -e 1540 -c 2 -a 0 -i 57 -k AGT 
- -t 0.310443763 -s 0 -d -1 -p tcp -e 1540 -c 2 -a 0 -i 57 -k AGT
h -t 0.310443763 -s 0 -d -1 -p tcp -e 1540 -c 2 -a 0 -i 57 -k AGT
+ -t 0.310443763 -s 0 -d 4 -p tcp -e 1540 -c 2 -a 0 -i 56 -k RTR 
- -t 0.310443763 -s 0 -d 4 -p tcp -e 1540 -c 2 -a 0 -i 56 -k RTR
h -t 0.310443763 -s 0 -d 4 -p tcp -e 1540 -c 2 -a 0 -i 56 -k RTR
+ -t 0.310443763 -s 0 -d 4 -p tcp -e 1540 -c 2 -a 0 -i 57 -k RTR 
- -t 0.310443763 -s 0 -d 4 -p tcp -e 1540 -c 2 -a 0 -i 57 -k RTR
h -t 0.310443763 -s 0 -d 4 -p tcp -e 1540 -c 2 -a 0 -i 57 -k RTR
r -t 0.324388949 -s 4 -d 4 -p tcp -e 1540 -c 2 -a 0 -i 30 -k AGT
+ -t 0.324388949 -s 4 -d -1 -p ack -e 40 -c 2 -a 0 -i 58 -k AGT 
- -t 0.324388949 -s 4 -d -1 -p ack -e 40 -c 2 -a 0 -i 58 -k AGT
h -t 0.324388949 -s 4 -d -1 -p ack -e 40 -c 2 -a 0 -i 58 -k AGT
+ -t 0.324388949 -s 4 -d 0 -p ack -e 40 -c 2 -a 0 -i 58 -k RTR 
- -t 0.324388949 -s 4 -d 0 -p ack -e 40 -c 2 -a 0 -i 58 -k RTR
h -t 0.324388949 -s 4 -d 0 -p ack -e 40 -c 2 -a 0 -i 58 -k RTR
r -t 0.326254135 -s 0 -d 0 -p ack -e 40 -c 2 -a 0 -i 58 -k AGT
+ -t 0.326254135 -s 0 -d -1 -p tcp -e 1540 -c 2 -a 0 -i 59 -k AGT 
- -t 0.326254135 -s 0 -d -1 -p tcp -e 1540 -c 2 -a 0 -i 59 -k AGT
h -t 0.326254135 -s 0 -d -1 -p tcp -e 1540 -c 2 -a 0 -i 59 -k AGT
+ -t 0.326254135 -s 0 -d 4 -p tcp -e 1540 -c 2 -a 0 -i 59 -k RTR 
- -t 0.326254135 -s 0 -d 4 -p tcp -e 1540 -c 2 -a 0 -i 59 -k RTR
h -t 0.326254135 -s 0 -d 4 -p tcp -e 1540 -c 2 -a 0 -i 59 -k RTR
r -t 0.340279321 -s 4 -d 4 -p tcp -e 1540 -c 2 -a 0 -i 31 -k AGT
+ -t 0.340279321 -s 4 -d -1 -p ack -e 40 -c 2 -a 0 -i 60 -k AGT 
- -t 0.340279321 -s 4 -d -1 -p ack -e 40 -c 2 -a 0 -i 60 -k AGT
h -t 0.340279321 -s 4 -d -1 -p ack -e 40 -c 2 -a 0 -i 60 -k AGT
+ -t 0.340279321 -s 4 -d 0 -p ack -e 40 -c 2 -a 0 -i 60 -k RTR 
- -t 0.340279321 -s 4 -d 0 -p ack -e 40 -c 2 -a 0 -i 60 -k RTR
h -t 0.340279321 -s 4 -d 0 -p ack -e 40 -c 2 -a 0 -i 60 -k RTR
r -t 0.354104903 -s 4 -d 4 -p tcp -e 1540 -c 2 -a 0 -i 33 -k AGT
+ -t 0.354104903 -s 4 -d -1 -p ack -e 40 -c 2 -a 0 -i 61 -k AGT 
- -t 0.354104903 -s 4 -d -1 -p ack -e 40 -c 2 -a 0 -i 61 -k AGT
h -t 0.354104903 -s 4 -d -1 -p ack -e 40 -c 2 -a 0 -i 61 -k AGT
+ -t 0.354104903 -s 4 -d 0 -p ack -e 40 -c 2 -a 0 -i 61 -k RTR 
- -t 0.354104903 -s 4 -d 0 -p ack -e 40 -c 2 -a 0 -i 61 -k RTR
h -t 0.354104903 -s 4 -d 0 -p ack -e 40 -c 2 -a 0 -i 61 -k RTR
r -t 0.368170484 -s 4 -d 4 -p tcp -e 1540 -c 2 -a 0 -i 34 -k AGT
+ -t 0.368170484 -s 4 -d -1 -p ack -e 40 -c 2 -a 0 -i 62 -k AGT 
- -t 0.368170484 -s 4 -d -1 -p ack -e 40 -c 2 -a 0 -i 62 -k AGT
h -t 0.368170484 -s 4 -d -1 -p ack -e 40 -c 2 -a 0 -i 62 -k AGT
+ -t 0.368170484 -s 4 -d 0 -p ack -e 40 -c 2 -a 0 -i 62 -k RTR 
- -t 0.368170484 -s 4 -d 0 -p ack -e 40 -c 2 -a 0 -i 62 -k RTR
h -t 0.368170484 -s 4 -d 0 -p ack -e 40 -c 2 -a 0 -i 62 -k RTR
r -t 0.370055670 -s 0 -d 0 -p ack -e 40 -c 2 -a 0 -i 60 -k AGT
+ -t 0.370055670 -s 0 -d -1 -p tcp -e 1540 -c 2 -a 0 -i 63 -k AGT 
- -t 0.370055670 -s 0 -d -1 -p tcp -e 1540 -c 2 -a 0 -i 63 -k AGT
h -t 0.370055670 -s 0 -d -1 -p tcp -e 1540 -c 2 -a 0 -i 63 -k AGT
+ -t 0.370055670 -s 0 -d 4 -p tcp -e 1540 -c 2 -a 0 -i 63 -k RTR 
- -t 0.370055670 -s 0 -d 4 -p tcp -e 1540 -c 2 -a 0 -i 63 -k RTR
h -t 0.370055670 -s 0 -d 4 -p tcp -e 1540 -c 2 -a 0 -i 63 -k RTR
r -t 0.384120856 -s 4 -d 4 -p tcp -e 1540 -c 2 -a 0 -i 35 -k AGT
+ -t 0.384120856 -s 4 -d -1 -p ack -e 40 -c 2 -a 0 -i 64 -k AGT 
- -t 0.384120856 -s 4 -d -1 -p ack -e 40 -c 2 -a 0 -i 64 -k AGT
h -t 0.384120856 -s 4 -d -1 -p ack -e 40 -c 2 -a 0 -i 64 -k AGT
+ -t 0.384120856 -s 4 -d 0 -p ack -e 40 -c 2 -a 0 -i 64 -k RTR 
- -t 0.384120856 -s 4 -d 0 -p ack -e 40 -c 2 -a 0 -i 64 -k RTR
h -t 0.384120856 -s 4 -d 0 -p ack -e 40 -c 2 -a 0 -i 64 -k RTR
r -t 0.397966437 -s 4 -d 4 -p tcp -e 1540 -c 2 -a 0 -i 36 -k AGT
+ -t 0.397966437 -s 4 -d -1 -p ack -e 40 -c 2 -a 0 -i 65 -k AGT 
- -t 0.397966437 -s 4 -d -1 -p ack -e 40 -c 2 -a 0 -i 65 -k AGT
h -t 0.397966437 -s 4 -d -1 -p ack -e 40 -c 2 -a 0 -i 65 -k AGT
+ -t 0.397966437 -s 4 -d 0 -p ack -e 40 -c 2 -a 0 -i 65 -k RTR 
- -t 0.397966437 -s 4 -d 0 -p ack -e 40 -c 2 -a 0 -i 65 -k RTR
h -t 0.397966437 -s 4 -d 0 -p ack -e 40 -c 2 -a 0 -i 65 -k RTR
r -t 0.399811623 -s 0 -d 0 -p ack -e 40 -c 2 -a 0 -i 61 -k AGT
+ -t 0.399811623 -s 0 -d -1 -p tcp -e 1540 -c 2 -a 0 -i 66 -k AGT 
- -t 0.399811623 -s 0 -d -1 -p tcp -e 1540 -c 2 -a 0 -i 66 -k AGT
h -t 0.399811623 -s 0 -d -1 -p tcp -e 1540 -c 2 -a 0 -i 66 -k AGT
+ -t 0.399811623 -s 0 -d 4 -p tcp -e 1540 -c 2 -a 0 -i 66 -k RTR 
- -t 0.399811623 -s 0 -d 4 -p tcp -e 1540 -c 2 -a 0 -i 66 -k RTR
h -t 0.399811623 -s 0 -d 4 -p tcp -e 1540 -c 2 -a 0 -i 66 -k RTR