s 0.010000000 _0_ AGT  --- 0 tcp 40 [0 0 0 0] ------- [0:0 9:0 32 0] [0 0] 0 0
r 0.010000000 _0_ RTR  --- 0 tcp 40 [0 0 0 0] ------- [0:0 9:0 32 0] [0 0] 0 0
s 0.010000000 _1_ AGT  --- 1 tcp 40 [0 0 0 0] ------- [1:0 8:0 32 0] [0 0] 0 0
r 0.010000000 _1_ RTR  --- 1 tcp 40 [0 0 0 0] ------- [1:0 8:0 32 0] [0 0] 0 0
s 0.010000000 _2_ AGT  --- 2 tcp 40 [0 0 0 0] ------- [2:0 7:0 32 0] [0 0] 0 0
r 0.010000000 _2_ RTR  --- 2 tcp 40 [0 0 0 0] ------- [2:0 7:0 32 0] [0 0] 0 0
s 0.010000000 _3_ AGT  --- 3 tcp 40 [0 0 0 0] ------- [3:0 6:0 32 0] [0 0] 0 0
r 0.010000000 _3_ RTR  --- 3 tcp 40 [0 0 0 0] ------- [3:0 6:0 32 0] [0 0] 0 0
s 0.010000000 _4_ AGT  --- 4 tcp 40 [0 0 0 0] ------- [4:0 5:0 32 0] [0 0] 0 0
r 0.010000000 _4_ RTR  --- 4 tcp 40 [0 0 0 0] ------- [4:0 5:0 32 0] [0 0] 0 0
s 0.010000000 _0_ RTR  --- 0 AODV 48 [0 0 0 0] ------- [0:255 -1:255 30 0] [0x2 1 1 [9 0] [0 4]] (REQUEST)
s 0.010000000 _1_ RTR  --- 0 AODV 48 [0 0 0 0] ------- [1:255 -1:255 30 0] [0x2 1 1 [8 0] [1 4]] (REQUEST)
s 0.010000000 _2_ RTR  --- 0 AODV 48 [0 0 0 0] ------- [2:255 -1:255 30 0] [0x2 1 1 [7 0] [2 4]] (REQUEST)
s 0.010000000 _3_ RTR  --- 0 AODV 48 [0 0 0 0] ------- [3:255 -1:255 30 0] [0x2 1 1 [6 0] [3 4]] (REQUEST)
s 0.010000000 _4_ RTR  --- 0 AODV 48 [0 0 0 0] ------- [4:255 -1:255 30 0] [0x2 1 1 [5 0] [4 4]] (REQUEST)
r 0.010948197 _2_ RTR  --- 0 AODV 48 [0 ffffffff 0 800] ------- [0:255 -1:255 30 0] [0x2 1 1 [9 0] [0 4]] (REQUEST)
r 0.010948650 _8_ RTR  --- 0 AODV 48 [0 ffffffff 0 800] ------- [0:255 -1:255 30 0] [0x2 1 1 [9 0] [0 4]] (REQUEST)
r 0.012046395 _0_ RTR  --- 0 AODV 48 [0 ffffffff 2 800] ------- [2:255 -1:255 30 0] [0x2 1 1 [7 0] [2 4]] (REQUEST)
r 0.012046952 _4_ RTR  --- 0 AODV 48 [0 ffffffff 2 800] ------- [2:255 -1:255 30 0] [0x2 1 1 [7 0] [2 4]] (REQUEST)
s 0.012590104 _8_ RTR  --- 0 AODV 48 [0 ffffffff 0 800] ------- [8:255 -1:255 29 0] [0x2 2 1 [9 0] [0 4]] (REQUEST)
s 0.013184477 _0_ RTR  --- 0 AODV 48 [0 ffffffff 2 800] ------- [0:255 -1:255 29 0] [0x2 2 1 [7 0] [2 4]] (REQUEST)
r 0.013305707 _2_ RTR  --- 0 AODV 48 [0 ffffffff 4 800] ------- [4:255 -1:255 30 0] [0x2 1 1 [5 0] [4 4]] (REQUEST)
r 0.013469997 _9_ RTR  --- 0 AODV 48 [0 ffffffff 1 800] ------- [1:255 -1:255 30 0] [0x2 1 1 [8 0] [1 4]] (REQUEST)
r 0.014893086 _0_ RTR  --- 0 AODV 48 [0 ffffffff 8 800] ------- [8:255 -1:255 29 0] [0x2 2 1 [9 0] [0 4]] (REQUEST)
r 0.014893159 _1_ RTR  --- 0 AODV 48 [0 ffffffff 8 800] ------- [8:255 -1:255 29 0] [0x2 2 1 [9 0] [0 4]] (REQUEST)
s 0.016050877 _9_ RTR  --- 0 AODV 48 [0 ffffffff 1 800] ------- [9:255 -1:255 29 0] [0x2 2 1 [8 0] [1 4]] (REQUEST)
r 0.016111284 _2_ RTR  --- 0 AODV 48 [0 ffffffff 0 800] ------- [0:255 -1:255 29 0] [0x2 2 1 [7 0] [2 4]] (REQUEST)
r 0.016111736 _8_ RTR  --- 0 AODV 48 [0 ffffffff 0 800] ------- [0:255 -1:255 29 0] [0x2 2 1 [7 0] [2 4]] (REQUEST)
r 0.017814793 _1_ RTR  --- 0 AODV 48 [0 ffffffff 9 800] ------- [9:255 -1:255 29 0] [0x2 2 1 [8 0] [1 4]] (REQUEST)
r 0.017815216 _5_ RTR  --- 0 AODV 48 [0 ffffffff 9 800] ------- [9:255 -1:255 29 0] [0x2 2 1 [8 0] [1 4]] (REQUEST)
s 0.019311433 _2_ RTR  --- 0 AODV 48 [0 ffffffff 0 800] ------- [2:255 -1:255 29 0] [0x2 2 1 [9 0] [0 4]] (REQUEST)
s 0.019986810 _5_ RTR  --- 0 AODV 48 [0 ffffffff 9 800] ------- [5:255 -1:255 28 0] [0x2 3 1 [8 0] [1 4]] (REQUEST)
s 0.020079647 _1_ RTR  --- 0 AODV 48 [0 ffffffff 8 800] ------- [1:255 -1:255 28 0] [0x2 3 1 [9 0] [0 4]] (REQUEST)
r 0.020619630 _0_ RTR  --- 0 AODV 48 [0 ffffffff 2 800] ------- [2:255 -1:255 29 0] [0x2 2 1 [9 0] [0 4]] (REQUEST)
r 0.020620188 _4_ RTR  --- 0 AODV 48 [0 ffffffff 2 800] ------- [2:255 -1:255 29 0] [0x2 2 1 [9 0] [0 4]] (REQUEST)
s 0.020644229 _4_ RTR  --- 0 AODV 48 [0 ffffffff 2 800] ------- [4:255 -1:255 29 0] [0x2 2 1 [7 0] [2 4]] (REQUEST)
s 0.021375993 _2_ RTR  --- 0 AODV 48 [0 ffffffff 4 800] ------- [2:255 -1:255 29 0] [0x2 2 1 [5 0] [4 4]] (REQUEST)
r 0.021672984 _2_ RTR  --- 0 AODV 48 [0 ffffffff 4 800] ------- [4:255 -1:255 29 0] [0x2 2 1 [7 0] [2 4]] (REQUEST)
r 0.021923392 _6_ RTR  --- 0 AODV 48 [0 ffffffff 5 800] ------- [5:255 -1:255 28 0] [0x2 3 1 [8 0] [1 4]] (REQUEST)
r 0.021923608 _9_ RTR  --- 0 AODV 48 [0 ffffffff 5 800] ------- [5:255 -1:255 28 0] [0x2 3 1 [8 0] [1 4]] (REQUEST)
r 0.023406568 _0_ RTR  --- 0 AODV 48 [0 ffffffff 2 800] ------- [2:255 -1:255 29 0] [0x2 2 1 [5 0] [4 4]] (REQUEST)
r 0.023407126 _4_ RTR  --- 0 AODV 48 [0 ffffffff 2 800] ------- [2:255 -1:255 29 0] [0x2 2 1 [5 0] [4 4]] (REQUEST)
s 0.023797045 _6_ RTR  --- 0 AODV 48 [0 ffffffff 5 800] ------- [6:255 -1:255 27 0] [0x2 4 1 [8 0] [1 4]] (REQUEST)
r 0.024710171 _9_ RTR  --- 0 AODV 48 [0 ffffffff 1 800] ------- [1:255 -1:255 28 0] [0x2 3 1 [9 0] [0 4]] (REQUEST)
s 0.024710171 _9_ RTR  --- 0 AODV 44 [0 0 0 0] ------- [9:255 0:255 30 1] [0x4 1 [9 4] 10.000000] (REPLY)
r 0.024710610 _8_ RTR  --- 0 AODV 48 [0 ffffffff 1 800] ------- [1:255 -1:255 28 0] [0x2 3 1 [9 0] [0 4]] (REQUEST)
s 0.024732409 _8_ RTR  --- 0 AODV 48 [0 ffffffff 0 800] ------- [8:255 -1:255 28 0] [0x2 3 1 [7 0] [2 4]] (REQUEST)
r 0.026921722 _0_ RTR  --- 0 AODV 48 [0 ffffffff 8 800] ------- [8:255 -1:255 28 0] [0x2 3 1 [7 0] [2 4]] (REQUEST)
r 0.026921795 _1_ RTR  --- 0 AODV 48 [0 ffffffff 8 800] ------- [8:255 -1:255 28 0] [0x2 3 1 [7 0] [2 4]] (REQUEST)
s 0.028152830 _1_ RTR  --- 0 AODV 48 [0 ffffffff 8 800] ------- [1:255 -1:255 27 0] [0x2 4 1 [7 0] [2 4]] (REQUEST)
s 0.029669643 _4_ RTR  --- 0 AODV 48 [0 ffffffff 2 800] ------- [4:255 -1:255 28 0] [0x2 3 1 [9 0] [0 4]] (REQUEST)
r 0.030393494 _1_ RTR  --- 0 AODV 44 [13a 1 9 800] ------- [9:255 0:255 30 1] [0x4 1 [9 4] 10.000000] (REPLY)
f 0.030393494 _1_ RTR  --- 0 AODV 44 [13a 1 9 800] ------- [9:255 0:255 29 8] [0x4 2 [9 4] 10.000000] (REPLY)
r 0.031725777 _9_ RTR  --- 0 AODV 48 [0 ffffffff 1 800] ------- [1:255 -1:255 27 0] [0x2 4 1 [7 0] [2 4]] (REQUEST)
s 0.032869218 _0_ RTR  --- 0 AODV 48 [0 ffffffff 2 800] ------- [0:255 -1:255 28 0] [0x2 3 1 [5 0] [4 4]] (REQUEST)
r 0.034127011 _2_ RTR  --- 0 AODV 48 [0 ffffffff 0 800] ------- [0:255 -1:255 28 0] [0x2 3 1 [5 0] [4 4]] (REQUEST)
r 0.034127251 _5_ RTR  --- 0 AODV 48 [0 ffffffff 6 800] ------- [6:255 -1:255 27 0] [0x2 4 1 [8 0] [1 4]] (REQUEST)
r 0.034127463 _8_ RTR  --- 0 AODV 48 [0 ffffffff 0 800] ------- [0:255 -1:255 28 0] [0x2 3 1 [5 0] [4 4]] (REQUEST)
s 0.037274174 _9_ RTR  --- 0 AODV 48 [0 ffffffff 1 800] ------- [9:255 -1:255 26 0] [0x2 5 1 [7 0] [2 4]] (REQUEST)
r 0.038106273 _8_ RTR  --- 0 AODV 44 [13a 8 1 800] ------- [9:255 0:255 29 8] [0x4 2 [9 4] 10.000000] (REPLY)
f 0.038106273 _8_ RTR  --- 0 AODV 44 [13a 8 1 800] ------- [9:255 0:255 28 0] [0x4 3 [9 4] 10.000000] (REPLY)
r 0.039703458 _1_ RTR  --- 0 AODV 48 [0 ffffffff 9 800] ------- [9:255 -1:255 26 0] [0x2 5 1 [7 0] [2 4]] (REQUEST)
r 0.039703881 _5_ RTR  --- 0 AODV 48 [0 ffffffff 9 800] ------- [9:255 -1:255 26 0] [0x2 5 1 [7 0] [2 4]] (REQUEST)
s 0.040617450 _5_ RTR  --- 0 AODV 48 [0 ffffffff 9 800] ------- [5:255 -1:255 25 0] [0x2 6 1 [7 0] [2 4]] (REQUEST)
s 0.041977334 _8_ RTR  --- 0 AODV 48 [0 ffffffff 0 800] ------- [8:255 -1:255 27 0] [0x2 4 1 [5 0] [4 4]] (REQUEST)
r 0.044000327 _0_ RTR  --- 0 AODV 48 [0 ffffffff 8 800] ------- [8:255 -1:255 27 0] [0x2 4 1 [5 0] [4 4]] (REQUEST)
r 0.044000399 _1_ RTR  --- 0 AODV 48 [0 ffffffff 8 800] ------- [8:255 -1:255 27 0] [0x2 4 1 [5 0] [4 4]] (REQUEST)
r 0.045643627 _0_ RTR  --- 0 AODV 44 [13a 0 8 800] ------- [9:255 0:255 28 0] [0x4 3 [9 4] 10.000000] (REPLY)
s 0.045643627 _0_ RTR  --- 0 tcp 40 [0 0 0 0] ------- [0:0 9:0 30 8] [0 0] 0 0
r 0.047729577 _8_ RTR  --- 0 tcp 40 [13a 8 0 800] ------- [0:0 9:0 30 8] [0 0] 1 0
f 0.047729577 _8_ RTR  --- 0 tcp 40 [13a 8 0 800] ------- [0:0 9:0 29 1] [0 0] 1 0
s 0.048212599 _1_ RTR  --- 0 AODV 48 [0 ffffffff 8 800] ------- [1:255 -1:255 26 0] [0x2 5 1 [5 0] [4 4]] (REQUEST)
r 0.049615744 _1_ RTR  --- 0 tcp 40 [13a 1 8 800] ------- [0:0 9:0 29 1] [0 0] 2 0
f 0.049615744 _1_ RTR  --- 0 tcp 40 [13a 1 8 800] ------- [0:0 9:0 28 9] [0 0] 2 0
r 0.051233148 _6_ RTR  --- 0 AODV 48 [0 ffffffff 5 800] ------- [5:255 -1:255 25 0] [0x2 6 1 [7 0] [2 4]] (REQUEST)
r 0.051233363 _9_ RTR  --- 0 AODV 48 [0 ffffffff 5 800] ------- [5:255 -1:255 25 0] [0x2 6 1 [7 0] [2 4]] (REQUEST)
r 0.052695854 _9_ RTR  --- 0 AODV 48 [0 ffffffff 1 800] ------- [1:255 -1:255 26 0] [0x2 5 1 [5 0] [4 4]] (REQUEST)
r 0.052696293 _8_ RTR  --- 0 AODV 48 [0 ffffffff 1 800] ------- [1:255 -1:255 26 0] [0x2 5 1 [5 0] [4 4]] (REQUEST)
r 0.054326420 _9_ AGT  --- 0 tcp 40 [13a 9 1 800] ------- [0:0 9:0 28 9] [0 0] 3 0
s 0.054326420 _9_ AGT  --- 5 ack 40 [0 0 0 0] ------- [9:0 0:0 32 0] [0 0] 0 0
r 0.054326420 _9_ RTR  --- 5 ack 40 [0 0 0 0] ------- [9:0 0:0 32 0] [0 0] 0 0
s 0.054326420 _9_ RTR  --- 5 ack 40 [0 0 0 0] ------- [9:0 0:0 30 1] [0 0] 0 0
r 0.056591270 _1_ RTR  --- 5 ack 40 [13a 1 9 800] ------- [9:0 0:0 30 1] [0 0] 1 0
f 0.056591270 _1_ RTR  --- 5 ack 40 [13a 1 9 800] ------- [9:0 0:0 29 8] [0 0] 1 0
s 0.058279940 _9_ RTR  --- 0 AODV 48 [0 ffffffff 1 800] ------- [9:255 -1:255 25 0] [0x2 6 1 [5 0] [4 4]] (REQUEST)
r 0.058537437 _8_ RTR  --- 5 ack 40 [13a 8 1 800] ------- [9:0 0:0 29 8] [0 0] 2 0
f 0.058537437 _8_ RTR  --- 5 ack 40 [13a 8 1 800] ------- [9:0 0:0 28 0] [0 0] 2 0
s 0.059253266 _6_ RTR  --- 0 AODV 48 [0 ffffffff 5 800] ------- [6:255 -1:255 24 0] [0x2 7 1 [7 0] [2 4]] (REQUEST)
r 0.060663387 _0_ AGT  --- 5 ack 40 [13a 0 8 800] ------- [9:0 0:0 28 0] [0 0] 3 0
s 0.060663387 _0_ AGT  --- 6 tcp 41 [0 0 0 0] ------- [0:0 9:0 32 0] [1 0] 0 0
r 0.060663387 _0_ RTR  --- 6 tcp 41 [0 0 0 0] ------- [0:0 9:0 32 0] [1 0] 0 0
s 0.060663387 _0_ AGT  --- 7 tcp 41 [0 0 0 0] ------- [0:0 9:0 32 0] [2 0] 0 0
r 0.060663387 _0_ RTR  --- 7 tcp 41 [0 0 0 0] ------- [0:0 9:0 32 0] [2 0] 0 0
s 0.060663387 _0_ RTR  --- 6 tcp 41 [0 0 0 0] ------- [0:0 9:0 30 8] [1 0] 0 0
s 0.060663387 _0_ RTR  --- 7 tcp 41 [0 0 0 0] ------- [0:0 9:0 30 8] [2 0] 0 0
r 0.062537337 _8_ RTR  --- 6 tcp 41 [13a 8 0 800] ------- [0:0 9:0 30 8] [1 0] 1 0
f 0.062537337 _8_ RTR  --- 6 tcp 41 [13a 8 0 800] ------- [0:0 9:0 29 1] [1 0] 1 0
r 0.064591937 _8_ RTR  --- 7 tcp 41 [13a 8 0 800] ------- [0:0 9:0 30 8] [2 0] 1 0
f 0.064591937 _8_ RTR  --- 7 tcp 41 [13a 8 0 800] ------- [0:0 9:0 29 1] [2 0] 1 0
r 0.066766104 _1_ RTR  --- 6 tcp 41 [13a 1 8 800] ------- [0:0 9:0 29 1] [1 0] 2 0
f 0.066766104 _1_ RTR  --- 6 tcp 41 [13a 1 8 800] ------- [0:0 9:0 28 9] [1 0] 2 0
r 0.068758953 _9_ AGT  --- 6 tcp 41 [13a 9 1 800] ------- [0:0 9:0 28 9] [1 0] 3 0
s 0.068758953 _9_ AGT  --- 8 ack 40 [0 0 0 0] ------- [9:0 0:0 32 0] [1 0] 0 0
r 0.068758953 _9_ RTR  --- 8 ack 40 [0 0 0 0] ------- [9:0 0:0 32 0] [1 0] 0 0
s 0.068758953 _9_ RTR  --- 8 ack 40 [0 0 0 0] ------- [9:0 0:0 30 1] [1 0] 0 0
r 0.070071237 _1_ RTR  --- 0 AODV 48 [0 ffffffff 9 800] ------- [9:255 -1:255 25 0] [0x2 6 1 [5 0] [4 4]] (REQUEST)
r 0.070071659 _5_ RTR  --- 0 AODV 48 [0 ffffffff 9 800] ------- [9:255 -1:255 25 0] [0x2 6 1 [5 0] [4 4]] (REQUEST)
s 0.070071659 _5_ RTR  --- 0 AODV 44 [0 0 0 0] ------- [5:255 4:255 30 9] [0x4 1 [5 4] 10.000000] (REPLY)
r 0.071701803 _1_ RTR  --- 8 ack 40 [13a 1 9 800] ------- [9:0 0:0 30 1] [1 0] 1 0
f 0.071701803 _1_ RTR  --- 8 ack 40 [13a 1 9 800] ------- [9:0 0:0 29 8] [1 0] 1 0
r 0.073707970 _8_ RTR  --- 8 ack 40 [13a 8 1 800] ------- [9:0 0:0 29 8] [1 0] 2 0
f 0.073707970 _8_ RTR  --- 8 ack 40 [13a 8 1 800] ------- [9:0 0:0 28 0] [1 0] 2 0
r 0.075702137 _1_ RTR  --- 7 tcp 41 [13a 1 8 800] ------- [0:0 9:0 29 1] [2 0] 2 0
f 0.075702137 _1_ RTR  --- 7 tcp 41 [13a 1 8 800] ------- [0:0 9:0 28 9] [2 0] 2 0
r 0.077674986 _9_ AGT  --- 7 tcp 41 [13a 9 1 800] ------- [0:0 9:0 28 9] [2 0] 3 0
s 0.077674986 _9_ AGT  --- 9 ack 40 [0 0 0 0] ------- [9:0 0:0 32 0] [2 0] 0 0
r 0.077674986 _9_ RTR  --- 9 ack 40 [0 0 0 0] ------- [9:0 0:0 32 0] [2 0] 0 0
s 0.077674986 _9_ RTR  --- 9 ack 40 [0 0 0 0] ------- [9:0 0:0 30 1] [2 0] 0 0
r 0.079683735 _9_ RTR  --- 0 AODV 44 [13a 9 5 800] ------- [5:255 4:255 30 9] [0x4 1 [5 4] 10.000000] (REPLY)
f 0.079683735 _9_ RTR  --- 0 AODV 44 [13a 9 5 800] ------- [5:255 4:255 29 1] [0x4 2 [5 4] 10.000000] (REPLY)
r 0.081688584 _1_ RTR  --- 9 ack 40 [13a 1 9 800] ------- [9:0 0:0 30 1] [2 0] 1 0
f 0.081688584 _1_ RTR  --- 9 ack 40 [13a 1 9 800] ------- [9:0 0:0 29 8] [2 0] 1 0
r 0.083674751 _8_ RTR  --- 9 ack 40 [13a 8 1 800] ------- [9:0 0:0 29 8] [2 0] 2 0
f 0.083674751 _8_ RTR  --- 9 ack 40 [13a 8 1 800] ------- [9:0 0:0 28 0] [2 0] 2 0
r 0.085620701 _0_ AGT  --- 8 ack 40 [13a 0 8 800] ------- [9:0 0:0 28 0] [1 0] 3 0
s 0.085620701 _0_ AGT  --- 10 tcp 41 [0 0 0 0] ------- [0:0 9:0 32 0] [3 0] 0 0
r 0.085620701 _0_ RTR  --- 10 tcp 41 [0 0 0 0] ------- [0:0 9:0 32 0] [3 0] 0 0
s 0.085620701 _0_ AGT  --- 11 tcp 41 [0 0 0 0] ------- [0:0 9:0 32 0] [4 0] 0 0
r 0.085620701 _0_ RTR  --- 11 tcp 41 [0 0 0 0] ------- [0:0 9:0 32 0] [4 0] 0 0
s 0.085620701 _0_ RTR  --- 10 tcp 41 [0 0 0 0] ------- [0:0 9:0 30 8] [3 0] 0 0
s 0.085620701 _0_ RTR  --- 11 tcp 41 [0 0 0 0] ------- [0:0 9:0 30 8] [4 0] 0 0
r 0.087474651 _8_ RTR  --- 10 tcp 41 [13a 8 0 800] ------- [0:0 9:0 30 8] [3 0] 1 0
f 0.087474651 _8_ RTR  --- 10 tcp 41 [13a 8 0 800] ------- [0:0 9:0 29 1] [3 0] 1 0
r 0.089409251 _8_ RTR  --- 11 tcp 41 [13a 8 0 800] ------- [0:0 9:0 30 8] [4 0] 1 0
f 0.089409251 _8_ RTR  --- 11 tcp 41 [13a 8 0 800] ------- [0:0 9:0 29 1] [4 0] 1 0
r 0.091375201 _0_ AGT  --- 9 ack 40 [13a 0 8 800] ------- [9:0 0:0 28 0] [2 0] 3 0
s 0.091375201 _0_ AGT  --- 12 tcp 41 [0 0 0 0] ------- [0:0 9:0 32 0] [5 0] 0 0
r 0.091375201 _0_ RTR  --- 12 tcp 41 [0 0 0 0] ------- [0:0 9:0 32 0] [5 0] 0 0
s 0.091375201 _0_ AGT  --- 13 tcp 41 [0 0 0 0] ------- [0:0 9:0 32 0] [6 0] 0 0
r 0.091375201 _0_ RTR  --- 13 tcp 41 [0 0 0 0] ------- [0:0 9:0 32 0] [6 0] 0 0
s 0.091375201 _0_ RTR  --- 12 tcp 41 [0 0 0 0] ------- [0:0 9:0 30 8] [5 0] 0 0
s 0.091375201 _0_ RTR  --- 13 tcp 41 [0 0 0 0] ------- [0:0 9:0 30 8] [6 0] 0 0
r 0.093269152 _8_ RTR  --- 12 tcp 41 [13a 8 0 800] ------- [0:0 9:0 30 8] [5 0] 1 0
f 0.093269152 _8_ RTR  --- 12 tcp 41 [13a 8 0 800] ------- [0:0 9:0 29 1] [5 0] 1 0
r 0.095563318 _1_ RTR  --- 10 tcp 41 [13a 1 8 800] ------- [0:0 9:0 29 1] [3 0] 2 0
f 0.095563318 _1_ RTR  --- 10 tcp 41 [13a 1 8 800] ------- [0:0 9:0 28 9] [3 0] 2 0
r 0.097418207 _1_ RTR  --- 11 tcp 41 [13a 1 8 800] ------- [0:0 9:0 29 1] [4 0] 2 0
f 0.097418207 _1_ RTR  --- 11 tcp 41 [13a 1 8 800] ------- [0:0 9:0 28 9] [4 0] 2 0
r 0.099273096 _1_ RTR  --- 12 tcp 41 [13a 1 8 800] ------- [0:0 9:0 29 1] [5 0] 2 0
f 0.099273096 _1_ RTR  --- 12 tcp 41 [13a 1 8 800] ------- [0:0 9:0 28 9] [5 0] 2 0
r 0.101260125 _1_ RTR  --- 0 AODV 44 [13a 1 9 800] ------- [5:255 4:255 29 1] [0x4 2 [5 4] 10.000000] (REPLY)
f 0.101260125 _1_ RTR  --- 0 AODV 44 [13a 1 9 800] ------- [5:255 4:255 28 8] [0x4 3 [5 4] 10.000000] (REPLY)
r 0.103352975 _9_ AGT  --- 10 tcp 41 [13a 9 1 800] ------- [0:0 9:0 28 9] [3 0] 3 0
s 0.103352975 _9_ AGT  --- 14 ack 40 [0 0 0 0] ------- [9:0 0:0 32 0] [3 0] 0 0
r 0.103352975 _9_ RTR  --- 14 ack 40 [0 0 0 0] ------- [9:0 0:0 32 0] [3 0] 0 0
s 0.103352975 _9_ RTR  --- 14 ack 40 [0 0 0 0] ------- [9:0 0:0 30 1] [3 0] 0 0
r 0.106114527 _8_ RTR  --- 13 tcp 41 [13a 8 0 800] ------- [0:0 9:0 30 8] [6 0] 1 0
f 0.106114527 _8_ RTR  --- 13 tcp 41 [13a 8 0 800] ------- [0:0 9:0 29 1] [6 0] 1 0
r 0.108328694 _1_ RTR  --- 13 tcp 41 [13a 1 8 800] ------- [0:0 9:0 29 1] [6 0] 2 0
f 0.108328694 _1_ RTR  --- 13 tcp 41 [13a 1 8 800] ------- [0:0 9:0 28 9] [6 0] 2 0
r 0.110026451 _5_ RTR  --- 0 AODV 48 [0 ffffffff 6 800] ------- [6:255 -1:255 24 0] [0x2 7 1 [7 0] [2 4]] (REQUEST)
r 0.110026704 _7_ RTR  --- 0 AODV 48 [0 ffffffff 6 800] ------- [6:255 -1:255 24 0] [0x2 7 1 [7 0] [2 4]] (REQUEST)
s 0.110026704 _7_ RTR  --- 0 AODV 44 [0 0 0 0] ------- [7:255 2:255 30 6] [0x4 1 [7 4] 10.000000] (REPLY)
r 0.114794908 _6_ RTR  --- 0 AODV 44 [13a 6 7 800] ------- [7:255 2:255 30 6] [0x4 1 [7 4] 10.000000] (REPLY)
f 0.114794908 _6_ RTR  --- 0 AODV 44 [13a 6 7 800] ------- [7:255 2:255 29 5] [0x4 2 [7 4] 10.000000] (REPLY)
r 0.119425341 _5_ RTR  --- 0 AODV 44 [13a 5 6 800] ------- [7:255 2:255 29 5] [0x4 2 [7 4] 10.000000] (REPLY)
f 0.119425341 _5_ RTR  --- 0 AODV 44 [13a 5 6 800] ------- [7:255 2:255 28 9] [0x4 3 [7 4] 10.000000] (REPLY)
r 0.121320827 _1_ RTR  --- 14 ack 40 [13a 1 9 800] ------- [9:0 0:0 30 1] [3 0] 1 0
f 0.121320827 _1_ RTR  --- 14 ack 40 [13a 1 9 800] ------- [9:0 0:0 29 8] [3 0] 1 0
r 0.123198993 _8_ RTR  --- 0 AODV 44 [13a 8 1 800] ------- [5:255 4:255 28 8] [0x4 3 [5 4] 10.000000] (REPLY)
f 0.123198993 _8_ RTR  --- 0 AODV 44 [13a 8 1 800] ------- [5:255 4:255 27 0] [0x4 4 [5 4] 10.000000] (REPLY)
r 0.125252565 _9_ AGT  --- 11 tcp 41 [13a 9 1 800] ------- [0:0 9:0 28 9] [4 0] 3 0
s 0.125252565 _9_ AGT  --- 15 ack 40 [0 0 0 0] ------- [9:0 0:0 32 0] [4 0] 0 0
r 0.125252565 _9_ RTR  --- 15 ack 40 [0 0 0 0] ------- [9:0 0:0 32 0] [4 0] 0 0
s 0.125252565 _9_ RTR  --- 15 ack 40 [0 0 0 0] ------- [9:0 0:0 30 1] [4 0] 0 0
r 0.127541314 _9_ RTR  --- 0 AODV 44 [13a 9 5 800] ------- [7:255 2:255 28 9] [0x4 3 [7 4] 10.000000] (REPLY)
f 0.127541314 _9_ RTR  --- 0 AODV 44 [13a 9 5 800] ------- [7:255 2:255 27 1] [0x4 4 [7 4] 10.000000] (REPLY)
r 0.129506163 _1_ RTR  --- 15 ack 40 [13a 1 9 800] ------- [9:0 0:0 30 1] [4 0] 1 0
f 0.129506163 _1_ RTR  --- 15 ack 40 [13a 1 9 800] ------- [9:0 0:0 29 8] [4 0] 1 0
r 0.131359013 _9_ AGT  --- 12 tcp 41 [13a 9 1 800] ------- [0:0 9:0 28 9] [5 0] 3 0
s 0.131359013 _9_ AGT  --- 16 ack 40 [0 0 0 0] ------- [9:0 0:0 32 0] [5 0] 0 0
r 0.131359013 _9_ RTR  --- 16 ack 40 [0 0 0 0] ------- [9:0 0:0 32 0] [5 0] 0 0
s 0.131359013 _9_ RTR  --- 16 ack 40 [0 0 0 0] ------- [9:0 0:0 30 1] [5 0] 0 0
r 0.133455863 _1_ RTR  --- 0 AODV 44 [13a 1 9 800] ------- [7:255 2:255 27 1] [0x4 4 [7 4] 10.000000] (REPLY)
f 0.133455863 _1_ RTR  --- 0 AODV 44 [13a 1 9 800] ------- [7:255 2:255 26 8] [0x4 5 [7 4] 10.000000] (REPLY)
r 0.135380996 _1_ RTR  --- 16 ack 40 [13a 1 9 800] ------- [9:0 0:0 30 1] [5 0] 1 0
f 0.135380996 _1_ RTR  --- 16 ack 40 [13a 1 9 800] ------- [9:0 0:0 29 8] [5 0] 1 0
r 0.137393845 _9_ AGT  --- 13 tcp 41 [13a 9 1 800] ------- [0:0 9:0 28 9] [6 0] 3 0
s 0.137393845 _9_ AGT  --- 17 ack 40 [0 0 0 0] ------- [9:0 0:0 32 0] [6 0] 0 0
r 0.137393845 _9_ RTR  --- 17 ack 40 [0 0 0 0] ------- [9:0 0:0 32 0] [6 0] 0 0
s 0.137393845 _9_ RTR  --- 17 ack 40 [0 0 0 0] ------- [9:0 0:0 30 1] [6 0] 0 0
r 0.139218695 _1_ RTR  --- 17 ack 40 [13a 1 9 800] ------- [9:0 0:0 30 1] [6 0] 1 0
f 0.139218695 _1_ RTR  --- 17 ack 40 [13a 1 9 800] ------- [9:0 0:0 29 8] [6 0] 1 0
r 0.141267264 _0_ RTR  --- 0 AODV 44 [13a 0 8 800] ------- [5:255 4:255 27 0] [0x4 4 [5 4] 10.000000] (REPLY)
f 0.141267264 _0_ RTR  --- 0 AODV 44 [13a 0 8 800] ------- [5:255 4:255 26 2] [0x4 5 [5 4] 10.000000] (REPLY)
r 0.146355646 _2_ RTR  --- 0 AODV 44 [13a 2 0 800] ------- [5:255 4:255 26 2] [0x4 5 [5 4] 10.000000] (REPLY)
f 0.146355646 _2_ RTR  --- 0 AODV 44 [13a 2 0 800] ------- [5:255 4:255 25 4] [0x4 6 [5 4] 10.000000] (REPLY)
r 0.153317329 _8_ RTR  --- 0 AODV 44 [13a 8 1 800] ------- [7:255 2:255 26 8] [0x4 5 [7 4] 10.000000] (REPLY)
f 0.153317329 _8_ RTR  --- 0 AODV 44 [13a 8 1 800] ------- [7:255 2:255 25 0] [0x4 6 [7 4] 10.000000] (REPLY)
r 0.155175279 _0_ RTR  --- 0 AODV 44 [13a 0 8 800] ------- [7:255 2:255 25 0] [0x4 6 [7 4] 10.000000] (REPLY)
f 0.155175279 _0_ RTR  --- 0 AODV 44 [13a 0 8 800] ------- [7:255 2:255 24 2] [0x4 7 [7 4] 10.000000] (REPLY)
r 0.159485929 _2_ RTR  --- 0 AODV 44 [13a 2 0 800] ------- [7:255 2:255 24 2] [0x4 7 [7 4] 10.000000] (REPLY)
s 0.159485929 _2_ RTR  --- 2 tcp 40 [0 0 0 0] ------- [2:0 7:0 30 0] [0 0] 0 0
r 0.161790521 _0_ RTR  --- 2 tcp 40 [13a 0 2 800] ------- [2:0 7:0 30 0] [0 0] 1 0
f 0.161790521 _0_ RTR  --- 2 tcp 40 [13a 0 2 800] ------- [2:0 7:0 29 8] [0 0] 1 0
r 0.164136471 _8_ RTR  --- 2 tcp 40 [13a 8 0 800] ------- [2:0 7:0 29 8] [0 0] 2 0
f 0.164136471 _8_ RTR  --- 2 tcp 40 [13a 8 0 800] ------- [2:0 7:0 28 1] [0 0] 2 0
r 0.166042638 _1_ RTR  --- 2 tcp 40 [13a 1 8 800] ------- [2:0 7:0 28 1] [0 0] 3 0
f 0.166042638 _1_ RTR  --- 2 tcp 40 [13a 1 8 800] ------- [2:0 7:0 27 9] [0 0] 3 0
r 0.168548805 _8_ RTR  --- 14 ack 40 [13a 8 1 800] ------- [9:0 0:0 29 8] [3 0] 2 0
f 0.168548805 _8_ RTR  --- 14 ack 40 [13a 8 1 800] ------- [9:0 0:0 28 0] [3 0] 2 0
r 0.170695694 _8_ RTR  --- 15 ack 40 [13a 8 1 800] ------- [9:0 0:0 29 8] [4 0] 2 0
f 0.170695694 _8_ RTR  --- 15 ack 40 [13a 8 1 800] ------- [9:0 0:0 28 0] [4 0] 2 0
r 0.172761644 _0_ AGT  --- 14 ack 40 [13a 0 8 800] ------- [9:0 0:0 28 0] [3 0] 3 0
s 0.172761644 _0_ AGT  --- 18 tcp 41 [0 0 0 0] ------- [0:0 9:0 32 0] [7 0] 0 0
r 0.172761644 _0_ RTR  --- 18 tcp 41 [0 0 0 0] ------- [0:0 9:0 32 0] [7 0] 0 0
s 0.172761644 _0_ AGT  --- 19 tcp 41 [0 0 0 0] ------- [0:0 9:0 32 0] [8 0] 0 0
r 0.172761644 _0_ RTR  --- 19 tcp 41 [0 0 0 0] ------- [0:0 9:0 32 0] [8 0] 0 0
s 0.172761644 _0_ RTR  --- 18 tcp 41 [0 0 0 0] ------- [0:0 9:0 30 8] [7 0] 0 0
s 0.172761644 _0_ RTR  --- 19 tcp 41 [0 0 0 0] ------- [0:0 9:0 30 8] [8 0] 0 0
r 0.174655594 _8_ RTR  --- 18 tcp 41 [13a 8 0 800] ------- [0:0 9:0 30 8] [7 0] 1 0
f 0.174655594 _8_ RTR  --- 18 tcp 41 [13a 8 0 800] ------- [0:0 9:0 29 1] [7 0] 1 0
r 0.178721297 _0_ AGT  --- 15 ack 40 [13a 0 8 800] ------- [9:0 0:0 28 0] [4 0] 3 0
s 0.178721297 _0_ AGT  --- 20 tcp 41 [0 0 0 0] ------- [0:0 9:0 32 0] [9 0] 0 0
r 0.178721297 _0_ RTR  --- 20 tcp 41 [0 0 0 0] ------- [0:0 9:0 32 0] [9 0] 0 0
s 0.178721297 _0_ AGT  --- 21 tcp 41 [0 0 0 0] ------- [0:0 9:0 32 0] [10 0] 0 0
r 0.178721297 _0_ RTR  --- 21 tcp 41 [0 0 0 0] ------- [0:0 9:0 32 0] [10 0] 0 0
s 0.178721297 _0_ RTR  --- 20 tcp 41 [0 0 0 0] ------- [0:0 9:0 30 8] [9 0] 0 0
s 0.178721297 _0_ RTR  --- 21 tcp 41 [0 0 0 0] ------- [0:0 9:0 30 8] [10 0] 0 0
r 0.180576114 _1_ RTR  --- 18 tcp 41 [13a 1 8 800] ------- [0:0 9:0 29 1] [7 0] 2 0
f 0.180576114 _1_ RTR  --- 18 tcp 41 [13a 1 8 800] ------- [0:0 9:0 28 9] [7 0] 2 0
r 0.184978803 _8_ RTR  --- 19 tcp 41 [13a 8 0 800] ------- [0:0 9:0 30 8] [8 0] 1 0
f 0.184978803 _8_ RTR  --- 19 tcp 41 [13a 8 0 800] ------- [0:0 9:0 29 1] [8 0] 1 0
r 0.187055639 _8_ RTR  --- 16 ack 40 [13a 8 1 800] ------- [9:0 0:0 29 8] [5 0] 2 0
f 0.187055639 _8_ RTR  --- 16 ack 40 [13a 8 1 800] ------- [9:0 0:0 28 0] [5 0] 2 0
r 0.189040186 _8_ RTR  --- 20 tcp 41 [13a 8 0 800] ------- [0:0 9:0 30 8] [9 0] 1 0
f 0.189040186 _8_ RTR  --- 20 tcp 41 [13a 8 0 800] ------- [0:0 9:0 29 1] [9 0] 1 0
r 0.190937022 _8_ RTR  --- 17 ack 40 [13a 8 1 800] ------- [9:0 0:0 29 8] [6 0] 2 0
f 0.190937022 _8_ RTR  --- 17 ack 40 [13a 8 1 800] ------- [9:0 0:0 28 0] [6 0] 2 0
r 0.192791188 _1_ RTR  --- 19 tcp 41 [13a 1 8 800] ------- [0:0 9:0 29 1] [8 0] 2 0
f 0.192791188 _1_ RTR  --- 19 tcp 41 [13a 1 8 800] ------- [0:0 9:0 28 9] [8 0] 2 0
r 0.194716038 _9_ RTR  --- 2 tcp 40 [13a 9 1 800] ------- [2:0 7:0 27 9] [0 0] 4 0
f 0.194716038 _9_ RTR  --- 2 tcp 40 [13a 9 1 800] ------- [2:0 7:0 26 5] [0 0] 4 0
r 0.196589171 _9_ AGT  --- 18 tcp 41 [13a 9 1 800] ------- [0:0 9:0 28 9] [7 0] 3 0
s 0.196589171 _9_ AGT  --- 22 ack 40 [0 0 0 0] ------- [9:0 0:0 32 0] [7 0] 0 0
r 0.196589171 _9_ RTR  --- 22 ack 40 [0 0 0 0] ------- [9:0 0:0 32 0] [7 0] 0 0
s 0.196589171 _9_ RTR  --- 22 ack 40 [0 0 0 0] ------- [9:0 0:0 30 1] [7 0] 0 0
r 0.198882304 _9_ AGT  --- 19 tcp 41 [13a 9 1 800] ------- [0:0 9:0 28 9] [8 0] 3 0
s 0.198882304 _9_ AGT  --- 23 ack 40 [0 0 0 0] ------- [9:0 0:0 32 0] [8 0] 0 0
r 0.198882304 _9_ RTR  --- 23 ack 40 [0 0 0 0] ------- [9:0 0:0 32 0] [8 0] 0 0
s 0.198882304 _9_ RTR  --- 23 ack 40 [0 0 0 0] ------- [9:0 0:0 30 1] [8 0] 0 0
r 0.203720978 _1_ RTR  --- 22 ack 40 [13a 1 9 800] ------- [9:0 0:0 30 1] [7 0] 1 0
f 0.203720978 _1_ RTR  --- 22 ack 40 [13a 1 9 800] ------- [9:0 0:0 29 8] [7 0] 1 0
r 0.205587144 _8_ RTR  --- 22 ack 40 [13a 8 1 800] ------- [9:0 0:0 29 8] [7 0] 2 0
f 0.205587144 _8_ RTR  --- 22 ack 40 [13a 8 1 800] ------- [9:0 0:0 28 0] [7 0] 2 0
r 0.207453095 _0_ AGT  --- 16 ack 40 [13a 0 8 800] ------- [9:0 0:0 28 0] [5 0] 3 0
s 0.207453095 _0_ AGT  --- 24 tcp 41 [0 0 0 0] ------- [0:0 9:0 32 0] [11 0] 0 0
r 0.207453095 _0_ RTR  --- 24 tcp 41 [0 0 0 0] ------- [0:0 9:0 32 0] [11 0] 0 0
s 0.207453095 _0_ AGT  --- 25 tcp 41 [0 0 0 0] ------- [0:0 9:0 32 0] [12 0] 0 0
r 0.207453095 _0_ RTR  --- 25 tcp 41 [0 0 0 0] ------- [0:0 9:0 32 0] [12 0] 0 0
s 0.207453095 _0_ RTR  --- 24 tcp 41 [0 0 0 0] ------- [0:0 9:0 30 8] [11 0] 0 0
s 0.207453095 _0_ RTR  --- 25 tcp 41 [0 0 0 0] ------- [0:0 9:0 30 8] [12 0] 0 0
r 0.209507045 _8_ RTR  --- 21 tcp 41 [13a 8 0 800] ------- [0:0 9:0 30 8] [10 0] 1 0
f 0.209507045 _8_ RTR  --- 21 tcp 41 [13a 8 0 800] ------- [0:0 9:0 29 1] [10 0] 1 0
r 0.212479968 _1_ RTR  --- 23 ack 40 [13a 1 9 800] ------- [9:0 0:0 30 1] [8 0] 1 0
f 0.212479968 _1_ RTR  --- 23 ack 40 [13a 1 9 800] ------- [9:0 0:0 29 8] [8 0] 1 0
r 0.214406134 _8_ RTR  --- 23 ack 40 [13a 8 1 800] ------- [9:0 0:0 29 8] [8 0] 2 0
f 0.214406134 _8_ RTR  --- 23 ack 40 [13a 8 1 800] ------- [9:0 0:0 28 0] [8 0] 2 0
r 0.216420301 _1_ RTR  --- 20 tcp 41 [13a 1 8 800] ------- [0:0 9:0 29 1] [9 0] 2 0
f 0.216420301 _1_ RTR  --- 20 tcp 41 [13a 1 8 800] ------- [0:0 9:0 28 9] [9 0] 2 0
r 0.218553151 _9_ AGT  --- 20 tcp 41 [13a 9 1 800] ------- [0:0 9:0 28 9] [9 0] 3 0
s 0.218553151 _9_ AGT  --- 26 ack 40 [0 0 0 0] ------- [9:0 0:0 32 0] [9 0] 0 0
r 0.218553151 _9_ RTR  --- 26 ack 40 [0 0 0 0] ------- [9:0 0:0 32 0] [9 0] 0 0
s 0.218553151 _9_ RTR  --- 26 ack 40 [0 0 0 0] ------- [9:0 0:0 30 1] [9 0] 0 0
r 0.220399269 _5_ RTR  --- 2 tcp 40 [13a 5 9 800] ------- [2:0 7:0 26 5] [0 0] 5 0
f 0.220399269 _5_ RTR  --- 2 tcp 40 [13a 5 9 800] ------- [2:0 7:0 25 6] [0 0] 5 0
r 0.222224740 _6_ RTR  --- 2 tcp 40 [13a 6 5 800] ------- [2:0 7:0 25 6] [0 0] 6 0
f 0.222224740 _6_ RTR  --- 2 tcp 40 [13a 6 5 800] ------- [2:0 7:0 24 7] [0 0] 6 0
r 0.225150971 _7_ AGT  --- 2 tcp 40 [13a 7 6 800] ------- [2:0 7:0 24 7] [0 0] 7 0
s 0.225150971 _7_ AGT  --- 27 ack 40 [0 0 0 0] ------- [7:0 2:0 32 0] [0 0] 0 0
r 0.225150971 _7_ RTR  --- 27 ack 40 [0 0 0 0] ------- [7:0 2:0 32 0] [0 0] 0 0
s 0.225150971 _7_ RTR  --- 27 ack 40 [0 0 0 0] ------- [7:0 2:0 30 6] [0 0] 0 0
r 0.227077201 _6_ RTR  --- 27 ack 40 [13a 6 7 800] ------- [7:0 2:0 30 6] [0 0] 1 0
f 0.227077201 _6_ RTR  --- 27 ack 40 [13a 6 7 800] ------- [7:0 2:0 29 5] [0 0] 1 0
r 0.229422672 _5_ RTR  --- 27 ack 40 [13a 5 6 800] ------- [7:0 2:0 29 5] [0 0] 2 0
f 0.229422672 _5_ RTR  --- 27 ack 40 [13a 5 6 800] ------- [7:0 2:0 28 9] [0 0] 2 0
r 0.231498158 _1_ RTR  --- 26 ack 40 [13a 1 9 800] ------- [9:0 0:0 30 1] [9 0] 1 0
f 0.231498158 _1_ RTR  --- 26 ack 40 [13a 1 9 800] ------- [9:0 0:0 29 8] [9 0] 1 0
r 0.233364324 _8_ RTR  --- 26 ack 40 [13a 8 1 800] ------- [9:0 0:0 29 8] [9 0] 2 0
f 0.233364324 _8_ RTR  --- 26 ack 40 [13a 8 1 800] ------- [9:0 0:0 28 0] [9 0] 2 0
r 0.235210275 _0_ AGT  --- 17 ack 40 [13a 0 8 800] ------- [9:0 0:0 28 0] [6 0] 3 0
s 0.235210275 _0_ AGT  --- 28 tcp 41 [0 0 0 0] ------- [0:0 9:0 32 0] [13 0] 0 0
r 0.235210275 _0_ RTR  --- 28 tcp 41 [0 0 0 0] ------- [0:0 9:0 32 0] [13 0] 0 0
s 0.235210275 _0_ AGT  --- 29 tcp 41 [0 0 0 0] ------- [0:0 9:0 32 0] [14 0] 0 0
r 0.235210275 _0_ RTR  --- 29 tcp 41 [0 0 0 0] ------- [0:0 9:0 32 0] [14 0] 0 0
s 0.235210275 _0_ RTR  --- 28 tcp 41 [0 0 0 0] ------- [0:0 9:0 30 8] [13 0] 0 0
s 0.235210275 _0_ RTR  --- 29 tcp 41 [0 0 0 0] ------- [0:0 9:0 30 8] [14 0] 0 0
r 0.237056875 _0_ AGT  --- 22 ack 40 [13a 0 8 800] ------- [9:0 0:0 28 0] [7 0] 3 0
s 0.237056875 _0_ AGT  --- 30 tcp 41 [0 0 0 0] ------- [0:0 9:0 32 0] [15 0] 0 0
r 0.237056875 _0_ RTR  --- 30 tcp 41 [0 0 0 0] ------- [0:0 9:0 32 0] [15 0] 0 0
s 0.237056875 _0_ AGT  --- 31 tcp 41 [0 0 0 0] ------- [0:0 9:0 32 0] [16 0] 0 0
r 0.237056875 _0_ RTR  --- 31 tcp 41 [0 0 0 0] ------- [0:0 9:0 32 0] [16 0] 0 0
s 0.237056875 _0_ RTR  --- 30 tcp 41 [0 0 0 0] ------- [0:0 9:0 30 8] [15 0] 0 0
s 0.237056875 _0_ RTR  --- 31 tcp 41 [0 0 0 0] ------- [0:0 9:0 30 8] [16 0] 0 0
r 0.238970825 _8_ RTR  --- 24 tcp 41 [13a 8 0 800] ------- [0:0 9:0 30 8] [11 0] 1 0
f 0.238970825 _8_ RTR  --- 24 tcp 41 [13a 8 0 800] ------- [0:0 9:0 29 1] [11 0] 1 0
r 0.241025425 _8_ RTR  --- 25 tcp 41 [13a 8 0 800] ------- [0:0 9:0 30 8] [12 0] 1 0
f 0.241025425 _8_ RTR  --- 25 tcp 41 [13a 8 0 800] ------- [0:0 9:0 29 1] [12 0] 1 0
r 0.243099592 _1_ RTR  --- 21 tcp 41 [13a 1 8 800] ------- [0:0 9:0 29 1] [10 0] 2 0
f 0.243099592 _1_ RTR  --- 21 tcp 41 [13a 1 8 800] ------- [0:0 9:0 28 9] [10 0] 2 0
r 0.245146264 _0_ AGT  --- 23 ack 40 [13a 0 8 800] ------- [9:0 0:0 28 0] [8 0] 3 0
s 0.245146264 _0_ AGT  --- 32 tcp 41 [0 0 0 0] ------- [0:0 9:0 32 0] [17 0] 0 0
r 0.245146264 _0_ RTR  --- 32 tcp 41 [0 0 0 0] ------- [0:0 9:0 32 0] [17 0] 0 0
s 0.245146264 _0_ AGT  --- 33 tcp 41 [0 0 0 0] ------- [0:0 9:0 32 0] [18 0] 0 0
r 0.245146264 _0_ RTR  --- 33 tcp 41 [0 0 0 0] ------- [0:0 9:0 32 0] [18 0] 0 0
s 0.245146264 _0_ RTR  --- 32 tcp 41 [0 0 0 0] ------- [0:0 9:0 30 8] [17 0] 0 0
s 0.245146264 _0_ RTR  --- 33 tcp 41 [0 0 0 0] ------- [0:0 9:0 30 8] [18 0] 0 0
r 0.247112864 _0_ AGT  --- 26 ack 40 [13a 0 8 800] ------- [9:0 0:0 28 0] [9 0] 3 0
s 0.247112864 _0_ AGT  --- 34 tcp 41 [0 0 0 0] ------- [0:0 9:0 32 0] [19 0] 0 0
r 0.247112864 _0_ RTR  --- 34 tcp 41 [0 0 0 0] ------- [0:0 9:0 32 0] [19 0] 0 0
s 0.247112864 _0_ AGT  --- 35 tcp 41 [0 0 0 0] ------- [0:0 9:0 32 0] [20 0] 0 0
r 0.247112864 _0_ RTR  --- 35 tcp 41 [0 0 0 0] ------- [0:0 9:0 32 0] [20 0] 0 0
s 0.247112864 _0_ RTR  --- 34 tcp 41 [0 0 0 0] ------- [0:0 9:0 30 8] [19 0] 0 0
s 0.247112864 _0_ RTR  --- 35 tcp 41 [0 0 0 0] ------- [0:0 9:0 30 8] [20 0] 0 0
r 0.248986814 _8_ RTR  --- 28 tcp 41 [13a 8 0 800] ------- [0:0 9:0 30 8] [13 0] 1 0
f 0.248986814 _8_ RTR  --- 28 tcp 41 [13a 8 0 800] ------- [0:0 9:0 29 1] [13 0] 1 0
r 0.251000981 _1_ RTR  --- 24 tcp 41 [13a 1 8 800] ------- [0:0 9:0 29 1] [11 0] 2 0
f 0.251000981 _1_ RTR  --- 24 tcp 41 [13a 1 8 800] ------- [0:0 9:0 28 9] [11 0] 2 0
r 0.253073831 _9_ AGT  --- 21 tcp 41 [13a 9 1 800] ------- [0:0 9:0 28 9] [10 0] 3 0