r 56.510470981 _0_ AGT  --- 1446 ack 40 [13a 0 7 800] ------- [4:0 0:0 29 0] [694 0] 2 0
s 56.510470981 _0_ AGT  --- 1447 tcp 1540 [0 0 0 0] ------- [0:0 4:0 32 0] [695 0] 0 0
r 56.510470981 _0_ RTR  --- 1447 tcp 1540 [0 0 0 0] ------- [0:0 4:0 32 0] [695 0] 0 0
s 56.510470981 _0_ AGT  --- 1448 tcp 1540 [0 0 0 0] ------- [0:0 4:0 32 0] [696 0] 0 0
r 56.510470981 _0_ RTR  --- 1448 tcp 1540 [0 0 0 0] ------- [0:0 4:0 32 0] [696 0] 0 0
s 56.510470981 _0_ RTR  --- 1447 tcp 1540 [0 0 0 0] ------- [0:0 4:0 30 7] [695 0] 0 0
s 56.510470981 _0_ RTR  --- 1448 tcp 1540 [0 0 0 0] ------- [0:0 4:0 30 7] [696 0] 0 0
r 56.524417261 _7_ RTR  --- 1447 tcp 1540 [13a 7 0 800] ------- [0:0 4:0 30 7] [695 0] 1 0
f 56.524417261 _7_ RTR  --- 1447 tcp 1540 [13a 7 0 800] ------- [0:0 4:0 29 4] [695 0] 1 0
r 56.538382294 _4_ AGT  --- 1447 tcp 1540 [13a 4 7 800] ------- [0:0 4:0 29 4] [695 0] 2 0
s 56.538382294 _4_ AGT  --- 1449 ack 40 [0 0 0 0] ------- [4:0 0:0 32 0] [695 0] 0 0
r 56.538382294 _4_ RTR  --- 1449 ack 40 [0 0 0 0] ------- [4:0 0:0 32 0] [695 0] 0 0
s 56.538382294 _4_ RTR  --- 1449 ack 40 [0 0 0 0] ------- [4:0 0:0 30 7] [695 0] 0 0
r 56.540367328 _7_ RTR  --- 1449 ack 40 [13a 7 4 800] ------- [4:0 0:0 30 7] [695 0] 1 0
f 56.540367328 _7_ RTR  --- 1449 ack 40 [13a 7 4 800] ------- [4:0 0:0 29 0] [695 0] 1 0
r 56.542313604 _0_ AGT  --- 1449 ack 40 [13a 0 7 800] ------- [4:0 0:0 29 0] [695 0] 2 0
s 56.542313604 _0_ AGT  --- 1450 tcp 1540 [0 0 0 0] ------- [0:0 4:0 32 0] [697 0] 0 0
r 56.542313604 _0_ RTR  --- 1450 tcp 1540 [0 0 0 0] ------- [0:0 4:0 32 0] [697 0] 0 0
s 56.542313604 _0_ AGT  --- 1451 tcp 1540 [0 0 0 0] ------- [0:0 4:0 32 0] [698 0] 0 0
r 56.542313604 _0_ RTR  --- 1451 tcp 1540 [0 0 0 0] ------- [0:0 4:0 32 0] [698 0] 0 0
s 56.542313604 _0_ RTR  --- 1450 tcp 1540 [0 0 0 0] ------- [0:0 4:0 30 7] [697 0] 0 0
s 56.542313604 _0_ RTR  --- 1451 tcp 1540 [0 0 0 0] ------- [0:0 4:0 30 7] [698 0] 0 0
r 56.556339881 _7_ RTR  --- 1448 tcp 1540 [13a 7 0 800] ------- [0:0 4:0 30 7] [696 0] 1 0
f 56.556339881 _7_ RTR  --- 1448 tcp 1540 [13a 7 0 800] ------- [0:0 4:0 29 4] [696 0] 1 0
r 56.570386915 _7_ RTR  --- 1450 tcp 1540 [13a 7 0 800] ------- [0:0 4:0 30 7] [697 0] 1 0
f 56.570386915 _7_ RTR  --- 1450 tcp 1540 [13a 7 0 800] ------- [0:0 4:0 29 4] [697 0] 1 0
r 56.584351952 _4_ AGT  --- 1448 tcp 1540 [13a 4 7 800] ------- [0:0 4:0 29 4] [696 0] 2 0
s 56.584351952 _4_ AGT  --- 1452 ack 40 [0 0 0 0] ------- [4:0 0:0 32 0] [696 0] 0 0
r 56.584351952 _4_ RTR  --- 1452 ack 40 [0 0 0 0] ------- [4:0 0:0 32 0] [696 0] 0 0
s 56.584351952 _4_ RTR  --- 1452 ack 40 [0 0 0 0] ------- [4:0 0:0 30 7] [696 0] 0 0
r 56.586216991 _7_ RTR  --- 1452 ack 40 [13a 7 4 800] ------- [4:0 0:0 30 7] [696 0] 1 0
f 56.586216991 _7_ RTR  --- 1452 ack 40 [13a 7 4 800] ------- [4:0 0:0 29 0] [696 0] 1 0
r 56.600362030 _4_ AGT  --- 1450 tcp 1540 [13a 4 7 800] ------- [0:0 4:0 29 4] [697 0] 2 0
s 56.600362030 _4_ AGT  --- 1453 ack 40 [0 0 0 0] ------- [4:0 0:0 32 0] [697 0] 0 0
r 56.600362030 _4_ RTR  --- 1453 ack 40 [0 0 0 0] ------- [4:0 0:0 32 0] [697 0] 0 0
s 56.600362030 _4_ RTR  --- 1453 ack 40 [0 0 0 0] ------- [4:0 0:0 30 7] [697 0] 0 0
r 56.602347070 _7_ RTR  --- 1453 ack 40 [13a 7 4 800] ------- [4:0 0:0 30 7] [697 0] 1 0
f 56.602347070 _7_ RTR  --- 1453 ack 40 [13a 7 4 800] ------- [4:0 0:0 29 0] [697 0] 1 0
r 56.604213341 _0_ AGT  --- 1452 ack 40 [13a 0 7 800] ------- [4:0 0:0 29 0] [696 0] 2 0
s 56.604213341 _0_ AGT  --- 1454 tcp 1540 [0 0 0 0] ------- [0:0 4:0 32 0] [699 0] 0 0
r 56.604213341 _0_ RTR  --- 1454 tcp 1540 [0 0 0 0] ------- [0:0 4:0 32 0] [699 0] 0 0
s 56.604213341 _0_ AGT  --- 1455 tcp 1540 [0 0 0 0] ------- [0:0 4:0 32 0] [700 0] 0 0
r 56.604213341 _0_ RTR  --- 1455 tcp 1540 [0 0 0 0] ------- [0:0 4:0 32 0] [700 0] 0 0
s 56.604213341 _0_ RTR  --- 1454 tcp 1540 [0 0 0 0] ------- [0:0 4:0 30 7] [699 0] 0 0
s 56.604213341 _0_ RTR  --- 1455 tcp 1540 [0 0 0 0] ------- [0:0 4:0 30 7] [700 0] 0 0
r 56.618079612 _7_ RTR  --- 1451 tcp 1540 [13a 7 0 800] ------- [0:0 4:0 30 7] [698 0] 1 0
f 56.618079612 _7_ RTR  --- 1451 tcp 1540 [13a 7 0 800] ------- [0:0 4:0 29 4] [698 0] 1 0
r 56.632066637 _7_ RTR  --- 1454 tcp 1540 [13a 7 0 800] ------- [0:0 4:0 30 7] [699 0] 1 0
f 56.632066637 _7_ RTR  --- 1454 tcp 1540 [13a 7 0 800] ------- [0:0 4:0 29 4] [699 0] 1 0
r 56.634212905 _0_ AGT  --- 1453 ack 40 [13a 0 7 800] ------- [4:0 0:0 29 0] [697 0] 2 0
s 56.634212905 _0_ AGT  --- 1456 tcp 1540 [0 0 0 0] ------- [0:0 4:0 32 0] [701 0] 0 0
r 56.634212905 _0_ RTR  --- 1456 tcp 1540 [0 0 0 0] ------- [0:0 4:0 32 0] [701 0] 0 0
s 56.634212905 _0_ AGT  --- 1457 tcp 1540 [0 0 0 0] ------- [0:0 4:0 32 0] [702 0] 0 0
r 56.634212905 _0_ RTR  --- 1457 tcp 1540 [0 0 0 0] ------- [0:0 4:0 32 0] [702 0] 0 0
s 56.634212905 _0_ RTR  --- 1456 tcp 1540 [0 0 0 0] ------- [0:0 4:0 30 7] [701 0] 0 0
s 56.634212905 _0_ RTR  --- 1457 tcp 1540 [0 0 0 0] ------- [0:0 4:0 30 7] [702 0] 0 0
r 56.648199172 _7_ RTR  --- 1455 tcp 1540 [13a 7 0 800] ------- [0:0 4:0 30 7] [700 0] 1 0
f 56.648199172 _7_ RTR  --- 1455 tcp 1540 [13a 7 0 800] ------- [0:0 4:0 29 4] [700 0] 1 0
r 56.662146194 _7_ RTR  --- 1456 tcp 1540 [13a 7 0 800] ------- [0:0 4:0 30 7] [701 0] 1 0
f 56.662146194 _7_ RTR  --- 1456 tcp 1540 [13a 7 0 800] ------- [0:0 4:0 29 4] [701 0] 1 0
r 56.675993213 _7_ RTR  --- 1457 tcp 1540 [13a 7 0 800] ------- [0:0 4:0 30 7] [702 0] 1 0
f 56.675993213 _7_ RTR  --- 1457 tcp 1540 [13a 7 0 800] ------- [0:0 4:0 29 4] [702 0] 1 0
r 56.689938262 _4_ AGT  --- 1451 tcp 1540 [13a 4 7 800] ------- [0:0 4:0 29 4] [698 0] 2 0
s 56.689938262 _4_ AGT  --- 1458 ack 40 [0 0 0 0] ------- [4:0 0:0 32 0] [699 0] 0 0
r 56.689938262 _4_ RTR  --- 1458 ack 40 [0 0 0 0] ------- [4:0 0:0 32 0] [699 0] 0 0
s 56.689938262 _4_ RTR  --- 1458 ack 40 [0 0 0 0] ------- [4:0 0:0 30 7] [699 0] 0 0
r 56.703763661 _4_ AGT  --- 1454 tcp 1540 [13a 4 7 800] ------- [0:0 4:0 29 4] [699 0] 2 0
s 56.703763661 _4_ AGT  --- 1459 ack 40 [0 0 0 0] ------- [4:0 0:0 32 0] [699 0] 0 0
r 56.703763661 _4_ RTR  --- 1459 ack 40 [0 0 0 0] ------- [4:0 0:0 32 0] [699 0] 0 0
s 56.703763661 _4_ RTR  --- 1459 ack 40 [0 0 0 0] ------- [4:0 0:0 30 7] [699 0] 0 0
r 56.717769062 _4_ AGT  --- 1455 tcp 1540 [13a 4 7 800] ------- [0:0 4:0 29 4] [700 0] 2 0
s 56.717769062 _4_ AGT  --- 1460 ack 40 [0 0 0 0] ------- [4:0 0:0 32 0] [700 0] 0 0
r 56.717769062 _4_ RTR  --- 1460 ack 40 [0 0 0 0] ------- [4:0 0:0 32 0] [700 0] 0 0
s 56.717769062 _4_ RTR  --- 1460 ack 40 [0 0 0 0] ------- [4:0 0:0 30 7] [700 0] 0 0
r 56.719814115 _7_ RTR  --- 1458 ack 40 [13a 7 4 800] ------- [4:0 0:0 30 7] [699 0] 1 0
f 56.719814115 _7_ RTR  --- 1458 ack 40 [13a 7 4 800] ------- [4:0 0:0 29 0] [699 0] 1 0
r 56.721639519 _7_ RTR  --- 1459 ack 40 [13a 7 4 800] ------- [4:0 0:0 30 7] [699 0] 1 0
f 56.721639519 _7_ RTR  --- 1459 ack 40 [13a 7 4 800] ------- [4:0 0:0 29 0] [699 0] 1 0
r 56.735584572 _4_ AGT  --- 1456 tcp 1540 [13a 4 7 800] ------- [0:0 4:0 29 4] [701 0] 2 0
s 56.735584572 _4_ AGT  --- 1461 ack 40 [0 0 0 0] ------- [4:0 0:0 32 0] [701 0] 0 0
r 56.735584572 _4_ RTR  --- 1461 ack 40 [0 0 0 0] ------- [4:0 0:0 32 0] [701 0] 0 0
s 56.735584572 _4_ RTR  --- 1461 ack 40 [0 0 0 0] ------- [4:0 0:0 30 7] [701 0] 0 0
r 56.737729626 _7_ RTR  --- 1460 ack 40 [13a 7 4 800] ------- [4:0 0:0 30 7] [700 0] 1 0
f 56.737729626 _7_ RTR  --- 1460 ack 40 [13a 7 4 800] ------- [4:0 0:0 29 0] [700 0] 1 0
r 56.751754680 _4_ AGT  --- 1457 tcp 1540 [13a 4 7 800] ------- [0:0 4:0 29 4] [702 0] 2 0
s 56.751754680 _4_ AGT  --- 1462 ack 40 [0 0 0 0] ------- [4:0 0:0 32 0] [702 0] 0 0
r 56.751754680 _4_ RTR  --- 1462 ack 40 [0 0 0 0] ------- [4:0 0:0 32 0] [702 0] 0 0
s 56.751754680 _4_ RTR  --- 1462 ack 40 [0 0 0 0] ------- [4:0 0:0 30 7] [702 0] 0 0
r 56.753619736 _7_ RTR  --- 1461 ack 40 [13a 7 4 800] ------- [4:0 0:0 30 7] [701 0] 1 0
f 56.753619736 _7_ RTR  --- 1461 ack 40 [13a 7 4 800] ------- [4:0 0:0 29 0] [701 0] 1 0
r 56.755785992 _0_ AGT  --- 1458 ack 40 [13a 0 7 800] ------- [4:0 0:0 29 0] [699 0] 2 0
s 56.755785992 _0_ AGT  --- 1463 tcp 1540 [0 0 0 0] ------- [0:0 4:0 32 0] [703 0] 0 0
r 56.755785992 _0_ RTR  --- 1463 tcp 1540 [0 0 0 0] ------- [0:0 4:0 32 0] [703 0] 0 0
s 56.755785992 _0_ AGT  --- 1464 tcp 1540 [0 0 0 0] ------- [0:0 4:0 32 0] [704 0] 0 0
r 56.755785992 _0_ RTR  --- 1464 tcp 1540 [0 0 0 0] ------- [0:0 4:0 32 0] [704 0] 0 0
s 56.755785992 _0_ AGT  --- 1465 tcp 1540 [0 0 0 0] ------- [0:0 4:0 32 0] [705 0] 0 0
r 56.755785992 _0_ RTR  --- 1465 tcp 1540 [0 0 0 0] ------- [0:0 4:0 32 0] [705 0] 0 0
s 56.755785992 _0_ RTR  --- 1463 tcp 1540 [0 0 0 0] ------- [0:0 4:0 30 7] [703 0] 0 0
s 56.755785992 _0_ RTR  --- 1464 tcp 1540 [0 0 0 0] ------- [0:0 4:0 30 7] [704 0] 0 0
s 56.755785992 _0_ RTR  --- 1465 tcp 1540 [0 0 0 0] ------- [0:0 4:0 30 7] [705 0] 0 0
r 56.769772247 _7_ RTR  --- 1463 tcp 1540 [13a 7 0 800] ------- [0:0 4:0 30 7] [703 0] 1 0
f 56.769772247 _7_ RTR  --- 1463 tcp 1540 [13a 7 0 800] ------- [0:0 4:0 29 4] [703 0] 1 0
r 56.771807649 _7_ RTR  --- 1462 ack 40 [13a 7 4 800] ------- [4:0 0:0 30 7] [702 0] 1 0
f 56.771807649 _7_ RTR  --- 1462 ack 40 [13a 7 4 800] ------- [4:0 0:0 29 0] [702 0] 1 0
r 56.773753903 _0_ AGT  --- 1459 ack 40 [13a 0 7 800] ------- [4:0 0:0 29 0] [699 0] 2 0
s 56.773753903 _0_ AGT  --- 1466 tcp 1540 [0 0 0 0] ------- [0:0 4:0 32 0] [706 0] 0 0
r 56.773753903 _0_ RTR  --- 1466 tcp 1540 [0 0 0 0] ------- [0:0 4:0 32 0] [706 0] 0 0
s 56.773753903 _0_ RTR  --- 1466 tcp 1540 [0 0 0 0] ------- [0:0 4:0 30 7] [706 0] 0 0
r 56.787740157 _7_ RTR  --- 1464 tcp 1540 [13a 7 0 800] ------- [0:0 4:0 30 7] [704 0] 1 0
f 56.787740157 _7_ RTR  --- 1464 tcp 1540 [13a 7 0 800] ------- [0:0 4:0 29 4] [704 0] 1 0
r 56.789586409 _0_ AGT  --- 1460 ack 40 [13a 0 7 800] ------- [4:0 0:0 29 0] [700 0] 2 0
s 56.789586409 _0_ AGT  --- 1467 tcp 1540 [0 0 0 0] ------- [0:0 4:0 32 0] [707 0] 0 0
r 56.789586409 _0_ RTR  --- 1467 tcp 1540 [0 0 0 0] ------- [0:0 4:0 32 0] [707 0] 0 0
s 56.789586409 _0_ RTR  --- 1467 tcp 1540 [0 0 0 0] ------- [0:0 4:0 30 7] [707 0] 0 0
r 56.791673411 _0_ AGT  --- 1461 ack 40 [13a 0 7 800] ------- [4:0 0:0 29 0] [701 0] 2 0
s 56.791673411 _0_ AGT  --- 1468 tcp 1540 [0 0 0 0] ------- [0:0 4:0 32 0] [708 0] 0 0
r 56.791673411 _0_ RTR  --- 1468 tcp 1540 [0 0 0 0] ------- [0:0 4:0 32 0] [708 0] 0 0
s 56.791673411 _0_ AGT  --- 1469 tcp 1540 [0 0 0 0] ------- [0:0 4:0 32 0] [709 0] 0 0
r 56.791673411 _0_ RTR  --- 1469 tcp 1540 [0 0 0 0] ------- [0:0 4:0 32 0] [709 0] 0 0
s 56.791673411 _0_ RTR  --- 1468 tcp 1540 [0 0 0 0] ------- [0:0 4:0 30 7] [708 0] 0 0
s 56.791673411 _0_ RTR  --- 1469 tcp 1540 [0 0 0 0] ------- [0:0 4:0 30 7] [709 0] 0 0
r 56.805599222 _4_ AGT  --- 1463 tcp 1540 [13a 4 7 800] ------- [0:0 4:0 29 4] [703 0] 2 0
s 56.805599222 _4_ AGT  --- 1470 ack 40 [0 0 0 0] ------- [4:0 0:0 32 0] [703 0] 0 0
r 56.805599222 _4_ RTR  --- 1470 ack 40 [0 0 0 0] ------- [4:0 0:0 32 0] [703 0] 0 0
s 56.805599222 _4_ RTR  --- 1470 ack 40 [0 0 0 0] ------- [4:0 0:0 30 7] [703 0] 0 0
r 56.807424284 _7_ RTR  --- 1470 ack 40 [13a 7 4 800] ------- [4:0 0:0 30 7] [703 0] 1 0
f 56.807424284 _7_ RTR  --- 1470 ack 40 [13a 7 4 800] ------- [4:0 0:0 29 0] [703 0] 1 0
r 56.809370534 _0_ AGT  --- 1462 ack 40 [13a 0 7 800] ------- [4:0 0:0 29 0] [702 0] 2 0
s 56.809370534 _0_ AGT  --- 1471 tcp 1540 [0 0 0 0] ------- [0:0 4:0 32 0] [710 0] 0 0
r 56.809370534 _0_ RTR  --- 1471 tcp 1540 [0 0 0 0] ------- [0:0 4:0 32 0] [710 0] 0 0
s 56.809370534 _0_ AGT  --- 1472 tcp 1540 [0 0 0 0] ------- [0:0 4:0 32 0] [711 0] 0 0
r 56.809370534 _0_ RTR  --- 1472 tcp 1540 [0 0 0 0] ------- [0:0 4:0 32 0] [711 0] 0 0
s 56.809370534 _0_ RTR  --- 1471 tcp 1540 [0 0 0 0] ------- [0:0 4:0 30 7] [710 0] 0 0
s 56.809370534 _0_ RTR  --- 1472 tcp 1540 [0 0 0 0] ------- [0:0 4:0 30 7] [711 0] 0 0
r 56.823256784 _7_ RTR  --- 1465 tcp 1540 [13a 7 0 800] ------- [0:0 4:0 30 7] [705 0] 1 0
f 56.823256784 _7_ RTR  --- 1465 tcp 1540 [13a 7 0 800] ------- [0:0 4:0 29 4] [705 0] 1 0
r 56.837203782 _7_ RTR  --- 1466 tcp 1540 [13a 7 0 800] ------- [0:0 4:0 30 7] [706 0] 1 0
f 56.837203782 _7_ RTR  --- 1466 tcp 1540 [13a 7 0 800] ------- [0:0 4:0 29 4] [706 0] 1 0
r 56.851110778 _7_ RTR  --- 1467 tcp 1540 [13a 7 0 800] ------- [0:0 4:0 30 7] [707 0] 1 0
f 56.851110778 _7_ RTR  --- 1467 tcp 1540 [13a 7 0 800] ------- [0:0 4:0 29 4] [707 0] 1 0
r 56.865095845 _4_ AGT  --- 1464 tcp 1540 [13a 4 7 800] ------- [0:0 4:0 29 4] [704 0] 2 0
s 56.865095845 _4_ AGT  --- 1473 ack 40 [0 0 0 0] ------- [4:0 0:0 32 0] [704 0] 0 0
r 56.865095845 _4_ RTR  --- 1473 ack 40 [0 0 0 0] ------- [4:0 0:0 32 0] [704 0] 0 0
s 56.865095845 _4_ RTR  --- 1473 ack 40 [0 0 0 0] ------- [4:0 0:0 30 7] [704 0] 0 0
r 56.867140912 _7_ RTR  --- 1473 ack 40 [13a 7 4 800] ------- [4:0 0:0 30 7] [704 0] 1 0
f 56.867140912 _7_ RTR  --- 1473 ack 40 [13a 7 4 800] ------- [4:0 0:0 29 0] [704 0] 1 0
r 56.869067156 _0_ AGT  --- 1470 ack 40 [13a 0 7 800] ------- [4:0 0:0 29 0] [703 0] 2 0
s 56.869067156 _0_ AGT  --- 1474 tcp 1540 [0 0 0 0] ------- [0:0 4:0 32 0] [712 0] 0 0
r 56.869067156 _0_ RTR  --- 1474 tcp 1540 [0 0 0 0] ------- [0:0 4:0 32 0] [712 0] 0 0
s 56.869067156 _0_ AGT  --- 1475 tcp 1540 [0 0 0 0] ------- [0:0 4:0 32 0] [713 0] 0 0
r 56.869067156 _0_ RTR  --- 1475 tcp 1540 [0 0 0 0] ------- [0:0 4:0 32 0] [713 0] 0 0
s 56.869067156 _0_ RTR  --- 1474 tcp 1540 [0 0 0 0] ------- [0:0 4:0 30 7] [712 0] 0 0
s 56.869067156 _0_ RTR  --- 1475 tcp 1540 [0 0 0 0] ------- [0:0 4:0 30 7] [713 0] 0 0