n -t * -s 0  -x 754 -y 431 -Z 0 -z 25  -v circle -c black
n -t * -s 1  -x 680 -y 859 -Z 0 -z 25  -v circle -c black
n -t * -s 2  -x 964 -y 826 -Z 0 -z 25  -v circle -c black
n -t * -s 3  -x 392 -y 351 -Z 0 -z 25  -v circle -c black
n -t * -s 4  -x 539 -y 827 -Z 0 -z 25  -v circle -c black
n -t * -s 5  -x 711 -y 513 -Z 0 -z 25  -v circle -c black
n -t * -s 6  -x 828 -y 786 -Z 0 -z 25  -v circle -c black
n -t * -s 7  -x 66 -y 814 -Z 0 -z 25  -v circle -c black
n -t * -s 8  -x 960 -y 389 -Z 0 -z 25  -v circle -c black
n -t * -s 9  -x 227 -y 672 -Z 0 -z 25  -v circle -c black
n -t * -s 10  -x 298 -y 333 -Z 0 -z 25  -v circle -c black
n -t * -s 11  -x 881 -y 975 -Z 0 -z 25  -v circle -c black
n -t * -s 12  -x 140 -y 488 -Z 0 -z 25  -v circle -c black
n -t * -s 13  -x 595 -y 393 -Z 0 -z 25  -v circle -c black
n -t * -s 14  -x 879 -y 945 -Z 0 -z 25  -v circle -c black
V -t * -v 1.0a5 -a 0
W -t * -x 1000 -y 1000
A -t * -n 1 -p 0 -o 0x7fffffff -c 30 -a 1
A -t * -h 1 -m 1073741823 -s 0
n -t 1.000000 -s 0 -x 754.000000 -y 431.000000 -U -3.435915 -V -2.048045 -T 133.297834
n -t 1.000000 -s 1 -x 680.000000 -y 859.000000 -U 2.591509 -V -4.275989 -T 84.892638
n -t 1.000000 -s 2 -x 964.000000 -y 826.000000 -U -7.173764 -V -3.540778 -T 108.450738
n -t 1.000000 -s 3 -x 392.000000 -y 351.000000 -U 2.667372 -V 7.542223 -T 76.104882
n -t 1.000000 -s 4 -x 539.000000 -y 827.000000 -U -5.194754 -V -7.349458 -T 93.748416
n -t 1.000000 -s 5 -x 711.000000 -y 513.000000 -U -1.941140 -V -0.481636 -T 342.582107
n -t 1.000000 -s 6 -x 828.000000 -y 786.000000 -U 1.896674 -V 2.324355 -T 53.778352
n -t 1.000000 -s 7 -x 66.000000 -y 814.000000 -U 5.166259 -V -7.369516 -T 105.298635
n -t 1.000000 -s 8 -x 960.000000 -y 389.000000 -U -6.209903 -V 5.043521 -T 92.594040
n -t 1.000000 -s 9 -x 227.000000 -y 672.000000 -U 2.571978 -V 1.544322 -T 176.129056
n -t 1.000000 -s 10 -x 298.000000 -y 333.000000 -U 3.124892 -V 3.903210 -T 86.082983
n -t 1.000000 -s 11 -x 881.000000 -y 975.000000 -U 0.394464 -V -3.980502 -T 139.429642
n -t 1.000000 -s 12 -x 140.000000 -y 488.000000 -U 3.963829 -V 0.536710 -T 178.867444
n -t 1.000000 -s 13 -x 595.000000 -y 393.000000 -U -3.656364 -V 4.757205 -T 101.740410
n -t 1.000000 -s 14 -x 879.000000 -y 945.000000 -U -3.435589 -V -6.098912 -T 101.001616
+ -t 1.000000000 -s 0 -d -1 -p tcp -e 40 -c 2 -a 0 -i 0 -k AGT 
- -t 1.000000000 -s 0 -d -1 -p tcp -e 40 -c 2 -a 0 -i 0 -k AGT
h -t 1.000000000 -s 0 -d -1 -p tcp -e 40 -c 2 -a 0 -i 0 -k AGT
+ -t 1.000000000 -s 0 -d -1 -p AODV -e 48 -c 2 -a 0 -i 0 -k RTR 
- -t 1.000000000 -s 0 -d -1 -p AODV -e 48 -c 2 -a 0 -i 0 -k RTR
h -t 1.000000000 -s 0 -d -1 -p AODV -e 48 -c 2 -a 0 -i 0 -k RTR
r -t 1.000988309 -s 5 -d -1 -p AODV -e 48 -c 2 -a 0 -i 0 -k RTR
r -t 1.000988545 -s 13 -d -1 -p AODV -e 48 -c 2 -a 0 -i 0 -k RTR
r -t 1.000988701 -s 8 -d -1 -p AODV -e 48 -c 2 -a 0 -i 0 -k RTR
+ -t 1.001869535 -s 5 -d -1 -p AODV -e 48 -c 2 -a 0 -i 0 -k RTR 
- -t 1.001869535 -s 5 -d -1 -p AODV -e 48 -c 2 -a 0 -i 0 -k RTR
h -t 1.001869535 -s 5 -d -1 -p AODV -e 48 -c 2 -a 0 -i 0 -k RTR
r -t 1.002977844 -s 0 -d -1 -p AODV -e 48 -c 2 -a 0 -i 0 -k RTR
r -t 1.002978092 -s 13 -d -1 -p AODV -e 48 -c 2 -a 0 -i 0 -k RTR
+ -t 1.005400279 -s 13 -d -1 -p AODV -e 48 -c 2 -a 0 -i 0 -k RTR 
- -t 1.005400279 -s 13 -d -1 -p AODV -e 48 -c 2 -a 0 -i 0 -k RTR
h -t 1.005400279 -s 13 -d -1 -p AODV -e 48 -c 2 -a 0 -i 0 -k RTR
r -t 1.006588824 -s 0 -d -1 -p AODV -e 48 -c 2 -a 0 -i 0 -k RTR
r -t 1.006588835 -s 5 -d -1 -p AODV -e 48 -c 2 -a 0 -i 0 -k RTR
r -t 1.006588970 -s 3 -d -1 -p AODV -e 48 -c 2 -a 0 -i 0 -k RTR
+ -t 1.008980255 -s 8 -d -1 -p AODV -e 48 -c 2 -a 0 -i 0 -k RTR 
- -t 1.008980255 -s 8 -d -1 -p AODV -e 48 -c 2 -a 0 -i 0 -k RTR
h -t 1.008980255 -s 8 -d -1 -p AODV -e 48 -c 2 -a 0 -i 0 -k RTR
+ -t 1.009679760 -s 3 -d -1 -p AODV -e 48 -c 2 -a 0 -i 0 -k RTR 
- -t 1.009679760 -s 3 -d -1 -p AODV -e 48 -c 2 -a 0 -i 0 -k RTR
h -t 1.009679760 -s 3 -d -1 -p AODV -e 48 -c 2 -a 0 -i 0 -k RTR
r -t 1.010668079 -s 10 -d -1 -p AODV -e 48 -c 2 -a 0 -i 0 -k RTR
+ -t 1.011806162 -s 10 -d -1 -p AODV -e 48 -c 2 -a 0 -i 0 -k RTR 
- -t 1.011806162 -s 10 -d -1 -p AODV -e 48 -c 2 -a 0 -i 0 -k RTR
h -t 1.011806162 -s 10 -d -1 -p AODV -e 48 -c 2 -a 0 -i 0 -k RTR
r -t 1.012994481 -s 3 -d -1 -p AODV -e 48 -c 2 -a 0 -i 0 -k RTR
r -t 1.012994899 -s 12 -d -1 -p AODV -e 48 -c 2 -a 0 -i 0 -k RTR
+ -t 1.014742952 -s 12 -d -1 -p AODV -e 48 -c 2 -a 0 -i 0 -k RTR 
- -t 1.014742952 -s 12 -d -1 -p AODV -e 48 -c 2 -a 0 -i 0 -k RTR
h -t 1.014742952 -s 12 -d -1 -p AODV -e 48 -c 2 -a 0 -i 0 -k RTR
r -t 1.016031630 -s 9 -d -1 -p AODV -e 48 -c 2 -a 0 -i 0 -k RTR
r -t 1.016031690 -s 10 -d -1 -p AODV -e 48 -c 2 -a 0 -i 0 -k RTR
+ -t 1.019519041 -s 9 -d -1 -p AODV -e 48 -c 2 -a 0 -i 0 -k RTR 
- -t 1.019519041 -s 9 -d -1 -p AODV -e 48 -c 2 -a 0 -i 0 -k RTR
h -t 1.019519041 -s 9 -d -1 -p AODV -e 48 -c 2 -a 0 -i 0 -k RTR
r -t 1.020687719 -s 12 -d -1 -p AODV -e 48 -c 2 -a 0 -i 0 -k RTR
r -t 1.020687756 -s 7 -d -1 -p AODV -e 48 -c 2 -a 0 -i 0 -k RTR
+ -t 1.025874244 -s 7 -d -1 -p AODV -e 48 -c 2 -a 0 -i 0 -k RTR 
- -t 1.025874244 -s 7 -d -1 -p AODV -e 48 -c 2 -a 0 -i 0 -k RTR
h -t 1.025874244 -s 7 -d -1 -p AODV -e 48 -c 2 -a 0 -i 0 -k RTR
r -t 1.027262959 -s 9 -d -1 -p AODV -e 48 -c 2 -a 0 -i 0 -k RTR
+ -t 3.000000000 -s 0 -d -1 -p AODV -e 48 -c 2 -a 0 -i 0 -k RTR 
- -t 3.000000000 -s 0 -d -1 -p AODV -e 48 -c 2 -a 0 -i 0 -k RTR
h -t 3.000000000 -s 0 -d -1 -p AODV -e 48 -c 2 -a 0 -i 0 -k RTR
r -t 3.001528314 -s 5 -d -1 -p AODV -e 48 -c 2 -a 0 -i 0 -k RTR
r -t 3.001528538 -s 13 -d -1 -p AODV -e 48 -c 2 -a 0 -i 0 -k RTR
r -t 3.001528675 -s 8 -d -1 -p AODV -e 48 -c 2 -a 0 -i 0 -k RTR
+ -t 3.003699908 -s 5 -d -1 -p AODV -e 48 -c 2 -a 0 -i 0 -k RTR 
- -t 3.003699908 -s 5 -d -1 -p AODV -e 48 -c 2 -a 0 -i 0 -k RTR
h -t 3.003699908 -s 5 -d -1 -p AODV -e 48 -c 2 -a 0 -i 0 -k RTR
+ -t 3.003940794 -s 13 -d -1 -p AODV -e 48 -c 2 -a 0 -i 0 -k RTR 
- -t 3.003940794 -s 13 -d -1 -p AODV -e 48 -c 2 -a 0 -i 0 -k RTR
h -t 3.003940794 -s 13 -d -1 -p AODV -e 48 -c 2 -a 0 -i 0 -k RTR
r -t 3.004948222 -s 0 -d -1 -p AODV -e 48 -c 2 -a 0 -i 0 -k RTR
r -t 3.004948448 -s 13 -d -1 -p AODV -e 48 -c 2 -a 0 -i 0 -k RTR
r -t 3.006166986 -s 0 -d -1 -p AODV -e 48 -c 2 -a 0 -i 0 -k RTR
r -t 3.006166988 -s 5 -d -1 -p AODV -e 48 -c 2 -a 0 -i 0 -k RTR
r -t 3.006167094 -s 3 -d -1 -p AODV -e 48 -c 2 -a 0 -i 0 -k RTR
+ -t 3.007259079 -s 3 -d -1 -p AODV -e 48 -c 2 -a 0 -i 0 -k RTR 
- -t 3.007259079 -s 3 -d -1 -p AODV -e 48 -c 2 -a 0 -i 0 -k RTR
h -t 3.007259079 -s 3 -d -1 -p AODV -e 48 -c 2 -a 0 -i 0 -k RTR
r -t 3.008407400 -s 10 -d -1 -p AODV -e 48 -c 2 -a 0 -i 0 -k RTR
r -t 3.008407725 -s 13 -d -1 -p AODV -e 48 -c 2 -a 0 -i 0 -k RTR
+ -t 3.010039740 -s 8 -d -1 -p AODV -e 48 -c 2 -a 0 -i 0 -k RTR 
- -t 3.010039740 -s 8 -d -1 -p AODV -e 48 -c 2 -a 0 -i 0 -k RTR
h -t 3.010039740 -s 8 -d -1 -p AODV -e 48 -c 2 -a 0 -i 0 -k RTR
r -t 3.011208415 -s 0 -d -1 -p AODV -e 48 -c 2 -a 0 -i 0 -k RTR
+ -t 3.017281836 -s 10 -d -1 -p AODV -e 48 -c 2 -a 0 -i 0 -k RTR 
- -t 3.017281836 -s 10 -d -1 -p AODV -e 48 -c 2 -a 0 -i 0 -k RTR
h -t 3.017281836 -s 10 -d -1 -p AODV -e 48 -c 2 -a 0 -i 0 -k RTR
r -t 3.018810157 -s 3 -d -1 -p AODV -e 48 -c 2 -a 0 -i 0 -k RTR
r -t 3.018810554 -s 12 -d -1 -p AODV -e 48 -c 2 -a 0 -i 0 -k RTR
+ -t 3.018918637 -s 12 -d -1 -p AODV -e 48 -c 2 -a 0 -i 0 -k RTR 
- -t 3.018918637 -s 12 -d -1 -p AODV -e 48 -c 2 -a 0 -i 0 -k RTR
h -t 3.018918637 -s 12 -d -1 -p AODV -e 48 -c 2 -a 0 -i 0 -k RTR
r -t 3.020207318 -s 9 -d -1 -p AODV -e 48 -c 2 -a 0 -i 0 -k RTR
r -t 3.020207355 -s 10 -d -1 -p AODV -e 48 -c 2 -a 0 -i 0 -k RTR
+ -t 3.021438353 -s 9 -d -1 -p AODV -e 48 -c 2 -a 0 -i 0 -k RTR 
- -t 3.021438353 -s 9 -d -1 -p AODV -e 48 -c 2 -a 0 -i 0 -k RTR
h -t 3.021438353 -s 9 -d -1 -p AODV -e 48 -c 2 -a 0 -i 0 -k RTR
r -t 3.022567016 -s 7 -d -1 -p AODV -e 48 -c 2 -a 0 -i 0 -k RTR
r -t 3.022567034 -s 12 -d -1 -p AODV -e 48 -c 2 -a 0 -i 0 -k RTR
+ -t 3.029553749 -s 7 -d -1 -p AODV -e 48 -c 2 -a 0 -i 0 -k RTR 
- -t 3.029553749 -s 7 -d -1 -p AODV -e 48 -c 2 -a 0 -i 0 -k RTR
h -t 3.029553749 -s 7 -d -1 -p AODV -e 48 -c 2 -a 0 -i 0 -k RTR
r -t 3.030502412 -s 9 -d -1 -p AODV -e 48 -c 2 -a 0 -i 0 -k RTR
+ -t 4.000000000 -s 0 -d -1 -p tcp -e 40 -c 2 -a 0 -i 1 -k AGT 
- -t 4.000000000 -s 0 -d -1 -p tcp -e 40 -c 2 -a 0 -i 1 -k AGT
h -t 4.000000000 -s 0 -d -1 -p tcp -e 40 -c 2 -a 0 -i 1 -k AGT
+ -t 7.000000000 -s 0 -d -1 -p AODV -e 48 -c 2 -a 0 -i 0 -k RTR 
- -t 7.000000000 -s 0 -d -1 -p AODV -e 48 -c 2 -a 0 -i 0 -k RTR
h -t 7.000000000 -s 0 -d -1 -p AODV -e 48 -c 2 -a 0 -i 0 -k RTR
r -t 7.001268325 -s 5 -d -1 -p AODV -e 48 -c 2 -a 0 -i 0 -k RTR
r -t 7.001268534 -s 13 -d -1 -p AODV -e 48 -c 2 -a 0 -i 0 -k RTR
r -t 7.001268631 -s 8 -d -1 -p AODV -e 48 -c 2 -a 0 -i 0 -k RTR
+ -t 7.001544109 -s 13 -d -1 -p AODV -e 48 -c 2 -a 0 -i 0 -k RTR 
- -t 7.001544109 -s 13 -d -1 -p AODV -e 48 -c 2 -a 0 -i 0 -k RTR
h -t 7.001544109 -s 13 -d -1 -p AODV -e 48 -c 2 -a 0 -i 0 -k RTR
r -t 7.002492623 -s 5 -d -1 -p AODV -e 48 -c 2 -a 0 -i 0 -k RTR
r -t 7.002492644 -s 0 -d -1 -p AODV -e 48 -c 2 -a 0 -i 0 -k RTR
r -t 7.002492666 -s 3 -d -1 -p AODV -e 48 -c 2 -a 0 -i 0 -k RTR
+ -t 7.004541801 -s 8 -d -1 -p AODV -e 48 -c 2 -a 0 -i 0 -k RTR 
- -t 7.004541801 -s 8 -d -1 -p AODV -e 48 -c 2 -a 0 -i 0 -k RTR
h -t 7.004541801 -s 8 -d -1 -p AODV -e 48 -c 2 -a 0 -i 0 -k RTR
+ -t 7.005525198 -s 5 -d -1 -p AODV -e 48 -c 2 -a 0 -i 0 -k RTR 
- -t 7.005525198 -s 5 -d -1 -p AODV -e 48 -c 2 -a 0 -i 0 -k RTR
h -t 7.005525198 -s 5 -d -1 -p AODV -e 48 -c 2 -a 0 -i 0 -k RTR
r -t 7.005770432 -s 0 -d -1 -p AODV -e 48 -c 2 -a 0 -i 0 -k RTR
r -t 7.005770605 -s 5 -d -1 -p AODV -e 48 -c 2 -a 0 -i 0 -k RTR
r -t 7.006688930 -s 0 -d -1 -p AODV -e 48 -c 2 -a 0 -i 0 -k RTR
r -t 7.006689119 -s 13 -d -1 -p AODV -e 48 -c 2 -a 0 -i 0 -k RTR
r -t 7.006689409 -s 8 -d -1 -p AODV -e 48 -c 2 -a 0 -i 0 -k RTR
+ -t 7.011960828 -s 3 -d -1 -p AODV -e 48 -c 2 -a 0 -i 0 -k RTR 
- -t 7.011960828 -s 3 -d -1 -p AODV -e 48 -c 2 -a 0 -i 0 -k RTR
h -t 7.011960828 -s 3 -d -1 -p AODV -e 48 -c 2 -a 0 -i 0 -k RTR
r -t 7.013029160 -s 10 -d -1 -p AODV -e 48 -c 2 -a 0 -i 0 -k RTR
r -t 7.013029384 -s 13 -d -1 -p AODV -e 48 -c 2 -a 0 -i 0 -k RTR
+ -t 7.017946377 -s 10 -d -1 -p AODV -e 48 -c 2 -a 0 -i 0 -k RTR 
- -t 7.017946377 -s 10 -d -1 -p AODV -e 48 -c 2 -a 0 -i 0 -k RTR
h -t 7.017946377 -s 10 -d -1 -p AODV -e 48 -c 2 -a 0 -i 0 -k RTR
r -t 7.019354709 -s 3 -d -1 -p AODV -e 48 -c 2 -a 0 -i 0 -k RTR
r -t 7.019355056 -s 12 -d -1 -p AODV -e 48 -c 2 -a 0 -i 0 -k RTR
+ -t 7.024684042 -s 12 -d -1 -p AODV -e 48 -c 2 -a 0 -i 0 -k RTR 
- -t 7.024684042 -s 12 -d -1 -p AODV -e 48 -c 2 -a 0 -i 0 -k RTR
h -t 7.024684042 -s 12 -d -1 -p AODV -e 48 -c 2 -a 0 -i 0 -k RTR
r -t 7.025732721 -s 10 -d -1 -p AODV -e 48 -c 2 -a 0 -i 0 -k RTR
r -t 7.025732727 -s 9 -d -1 -p AODV -e 48 -c 2 -a 0 -i 0 -k RTR
+ -t 7.026614729 -s 9 -d -1 -p AODV -e 48 -c 2 -a 0 -i 0 -k RTR 
- -t 7.026614729 -s 9 -d -1 -p AODV -e 48 -c 2 -a 0 -i 0 -k RTR
h -t 7.026614729 -s 9 -d -1 -p AODV -e 48 -c 2 -a 0 -i 0 -k RTR
r -t 7.027763296 -s 7 -d -1 -p AODV -e 48 -c 2 -a 0 -i 0 -k RTR
r -t 7.027763414 -s 12 -d -1 -p AODV -e 48 -c 2 -a 0 -i 0 -k RTR
+ -t 7.035043713 -s 7 -d -1 -p AODV -e 48 -c 2 -a 0 -i 0 -k RTR 
- -t 7.035043713 -s 7 -d -1 -p AODV -e 48 -c 2 -a 0 -i 0 -k RTR
h -t 7.035043713 -s 7 -d -1 -p AODV -e 48 -c 2 -a 0 -i 0 -k RTR
r -t 7.036592280 -s 9 -d -1 -p AODV -e 48 -c 2 -a 0 -i 0 -k RTR
+ -t 10.000000000 -s 0 -d -1 -p tcp -e 40 -c 2 -a 0 -i 2 -k AGT 
- -t 10.000000000 -s 0 -d -1 -p tcp -e 40 -c 2 -a 0 -i 2 -k AGT
h -t 10.000000000 -s 0 -d -1 -p tcp -e 40 -c 2 -a 0 -i 2 -k AGT
+ -t 12.500000000 -s 0 -d -1 -p AODV -e 48 -c 2 -a 0 -i 0 -k RTR 
- -t 12.500000000 -s 0 -d -1 -p AODV -e 48 -c 2 -a 0 -i 0 -k RTR
h -t 12.500000000 -s 0 -d -1 -p AODV -e 48 -c 2 -a 0 -i 0 -k RTR
r -t 12.501008344 -s 5 -d -1 -p AODV -e 48 -c 2 -a 0 -i 0 -k RTR
r -t 12.501008555 -s 13 -d -1 -p AODV -e 48 -c 2 -a 0 -i 0 -k RTR
r -t 12.501008595 -s 8 -d -1 -p AODV -e 48 -c 2 -a 0 -i 0 -k RTR
+ -t 12.504568930 -s 5 -d -1 -p AODV -e 48 -c 2 -a 0 -i 0 -k RTR 
- -t 12.504568930 -s 5 -d -1 -p AODV -e 48 -c 2 -a 0 -i 0 -k RTR
h -t 12.504568930 -s 5 -d -1 -p AODV -e 48 -c 2 -a 0 -i 0 -k RTR
r -t 12.506057274 -s 0 -d -1 -p AODV -e 48 -c 2 -a 0 -i 0 -k RTR
r -t 12.506057424 -s 13 -d -1 -p AODV -e 48 -c 2 -a 0 -i 0 -k RTR
r -t 12.506057626 -s 8 -d -1 -p AODV -e 48 -c 2 -a 0 -i 0 -k RTR
+ -t 12.506592641 -s 13 -d -1 -p AODV -e 48 -c 2 -a 0 -i 0 -k RTR 
- -t 12.506592641 -s 13 -d -1 -p AODV -e 48 -c 2 -a 0 -i 0 -k RTR
h -t 12.506592641 -s 13 -d -1 -p AODV -e 48 -c 2 -a 0 -i 0 -k RTR
r -t 12.507841076 -s 3 -d -1 -p AODV -e 48 -c 2 -a 0 -i 0 -k RTR
r -t 12.507841135 -s 5 -d -1 -p AODV -e 48 -c 2 -a 0 -i 0 -k RTR
r -t 12.507841196 -s 0 -d -1 -p AODV -e 48 -c 2 -a 0 -i 0 -k RTR
r -t 12.507841407 -s 10 -d -1 -p AODV -e 48 -c 2 -a 0 -i 0 -k RTR
+ -t 12.509164419 -s 8 -d -1 -p AODV -e 48 -c 2 -a 0 -i 0 -k RTR 
- -t 12.509164419 -s 8 -d -1 -p AODV -e 48 -c 2 -a 0 -i 0 -k RTR
h -t 12.509164419 -s 8 -d -1 -p AODV -e 48 -c 2 -a 0 -i 0 -k RTR
r -t 12.510693014 -s 0 -d -1 -p AODV -e 48 -c 2 -a 0 -i 0 -k RTR
r -t 12.510693115 -s 5 -d -1 -p AODV -e 48 -c 2 -a 0 -i 0 -k RTR
+ -t 12.511577445 -s 10 -d -1 -p AODV -e 48 -c 2 -a 0 -i 0 -k RTR 
- -t 12.511577445 -s 10 -d -1 -p AODV -e 48 -c 2 -a 0 -i 0 -k RTR
h -t 12.511577445 -s 10 -d -1 -p AODV -e 48 -c 2 -a 0 -i 0 -k RTR
r -t 12.512705802 -s 3 -d -1 -p AODV -e 48 -c 2 -a 0 -i 0 -k RTR
r -t 12.512706074 -s 12 -d -1 -p AODV -e 48 -c 2 -a 0 -i 0 -k RTR
r -t 12.512706211 -s 13 -d -1 -p AODV -e 48 -c 2 -a 0 -i 0 -k RTR
+ -t 12.513302306 -s 3 -d -1 -p AODV -e 48 -c 2 -a 0 -i 0 -k RTR 
- -t 12.513302306 -s 3 -d -1 -p AODV -e 48 -c 2 -a 0 -i 0 -k RTR
h -t 12.513302306 -s 3 -d -1 -p AODV -e 48 -c 2 -a 0 -i 0 -k RTR
r -t 12.514650663 -s 10 -d -1 -p AODV -e 48 -c 2 -a 0 -i 0 -k RTR
r -t 12.514650742 -s 13 -d -1 -p AODV -e 48 -c 2 -a 0 -i 0 -k RTR
r -t 12.514651119 -s 12 -d -1 -p AODV -e 48 -c 2 -a 0 -i 0 -k RTR
+ -t 12.521825466 -s 12 -d -1 -p AODV -e 48 -c 2 -a 0 -i 0 -k RTR 
- -t 12.521825466 -s 12 -d -1 -p AODV -e 48 -c 2 -a 0 -i 0 -k RTR
h -t 12.521825466 -s 12 -d -1 -p AODV -e 48 -c 2 -a 0 -i 0 -k RTR
r -t 12.522934094 -s 10 -d -1 -p AODV -e 48 -c 2 -a 0 -i 0 -k RTR
r -t 12.522934159 -s 9 -d -1 -p AODV -e 48 -c 2 -a 0 -i 0 -k RTR
r -t 12.522934274 -s 7 -d -1 -p AODV -e 48 -c 2 -a 0 -i 0 -k RTR
r -t 12.522934278 -s 3 -d -1 -p AODV -e 48 -c 2 -a 0 -i 0 -k RTR
+ -t 12.526151507 -s 9 -d -1 -p AODV -e 48 -c 2 -a 0 -i 0 -k RTR 
- -t 12.526151507 -s 9 -d -1 -p AODV -e 48 -c 2 -a 0 -i 0 -k RTR
h -t 12.526151507 -s 9 -d -1 -p AODV -e 48 -c 2 -a 0 -i 0 -k RTR
r -t 12.527459963 -s 7 -d -1 -p AODV -e 48 -c 2 -a 0 -i 0 -k RTR
r -t 12.527460201 -s 12 -d -1 -p AODV -e 48 -c 2 -a 0 -i 0 -k RTR
r -t 12.527460269 -s 4 -d -1 -p AODV -e 48 -c 2 -a 0 -i 0 -k RTR
+ -t 12.527460269 -s 4 -d 9 -p AODV -e 44 -c 2 -a 0 -i 0 -k RTR 
- -t 12.527460269 -s 4 -d 9 -p AODV -e 44 -c 2 -a 0 -i 0 -k RTR
h -t 12.527460269 -s 4 -d 9 -p AODV -e 44 -c 2 -a 0 -i 0 -k RTR
+ -t 12.531746849 -s 7 -d -1 -p AODV -e 48 -c 2 -a 0 -i 0 -k RTR 
- -t 12.531746849 -s 7 -d -1 -p AODV -e 48 -c 2 -a 0 -i 0 -k RTR
h -t 12.531746849 -s 7 -d -1 -p AODV -e 48 -c 2 -a 0 -i 0 -k RTR
+ -t 12.532428602 -s 9 -d 12 -p AODV -e 44 -c 2 -a 0 -i 0 -k RTR 
- -t 12.532428602 -s 9 -d 12 -p AODV -e 44 -c 2 -a 0 -i 0 -k RTR
h -t 12.532428602 -s 9 -d 12 -p AODV -e 44 -c 2 -a 0 -i 0 -k RTR
r -t 12.533711476 -s 9 -d -1 -p AODV -e 48 -c 2 -a 0 -i 0 -k RTR
r -t 12.533711828 -s 12 -d -1 -p AODV -e 48 -c 2 -a 0 -i 0 -k RTR
+ -t 12.539049331 -s 12 -d 10 -p AODV -e 44 -c 2 -a 0 -i 0 -k RTR 
- -t 12.539049331 -s 12 -d 10 -p AODV -e 44 -c 2 -a 0 -i 0 -k RTR
h -t 12.539049331 -s 12 -d 10 -p AODV -e 44 -c 2 -a 0 -i 0 -k RTR
+ -t 12.543680727 -s 10 -d 13 -p AODV -e 44 -c 2 -a 0 -i 0 -k RTR 
- -t 12.543680727 -s 10 -d 13 -p AODV -e 44 -c 2 -a 0 -i 0 -k RTR
h -t 12.543680727 -s 10 -d 13 -p AODV -e 44 -c 2 -a 0 -i 0 -k RTR
+ -t 12.548473084 -s 13 -d 0 -p AODV -e 44 -c 2 -a 0 -i 0 -k RTR 
- -t 12.548473084 -s 13 -d 0 -p AODV -e 44 -c 2 -a 0 -i 0 -k RTR
h -t 12.548473084 -s 13 -d 0 -p AODV -e 44 -c 2 -a 0 -i 0 -k RTR
+ -t 12.553963970 -s 0 -d 13 -p tcp -e 40 -c 2 -a 0 -i 0 -k RTR 
- -t 12.553963970 -s 0 -d 13 -p tcp -e 40 -c 2 -a 0 -i 0 -k RTR
h -t 12.553963970 -s 0 -d 13 -p tcp -e 40 -c 2 -a 0 -i 0 -k RTR
+ -t 12.556029636 -s 13 -d 10 -p tcp -e 40 -c 2 -a 0 -i 0 -k RTR 
- -t 12.556029636 -s 13 -d 10 -p tcp -e 40 -c 2 -a 0 -i 0 -k RTR
h -t 12.556029636 -s 13 -d 10 -p tcp -e 40 -c 2 -a 0 -i 0 -k RTR
+ -t 12.557955932 -s 10 -d 12 -p tcp -e 40 -c 2 -a 0 -i 0 -k RTR 
- -t 12.557955932 -s 10 -d 12 -p tcp -e 40 -c 2 -a 0 -i 0 -k RTR
h -t 12.557955932 -s 10 -d 12 -p tcp -e 40 -c 2 -a 0 -i 0 -k RTR
+ -t 12.560321815 -s 12 -d 9 -p tcp -e 40 -c 2 -a 0 -i 0 -k RTR 
- -t 12.560321815 -s 12 -d 9 -p tcp -e 40 -c 2 -a 0 -i 0 -k RTR
h -t 12.560321815 -s 12 -d 9 -p tcp -e 40 -c 2 -a 0 -i 0 -k RTR
+ -t 12.562727896 -s 9 -d 4 -p tcp -e 40 -c 2 -a 0 -i 0 -k RTR 
- -t 12.562727896 -s 9 -d 4 -p tcp -e 40 -c 2 -a 0 -i 0 -k RTR
h -t 12.562727896 -s 9 -d 4 -p tcp -e 40 -c 2 -a 0 -i 0 -k RTR
+ -t 12.563963970 -s 0 -d 13 -p tcp -e 40 -c 2 -a 0 -i 1 -k RTR 
- -t 12.563963970 -s 0 -d 13 -p tcp -e 40 -c 2 -a 0 -i 1 -k RTR
h -t 12.563963970 -s 0 -d 13 -p tcp -e 40 -c 2 -a 0 -i 1 -k RTR
r -t 12.564774178 -s 4 -d 4 -p tcp -e 40 -c 2 -a 0 -i 0 -k AGT
+ -t 12.564774178 -s 4 -d -1 -p ack -e 40 -c 2 -a 0 -i 3 -k AGT 
- -t 12.564774178 -s 4 -d -1 -p ack -e 40 -c 2 -a 0 -i 3 -k AGT
h -t 12.564774178 -s 4 -d -1 -p ack -e 40 -c 2 -a 0 -i 3 -k AGT
+ -t 12.564774178 -s 4 -d 9 -p ack -e 40 -c 2 -a 0 -i 3 -k RTR 
- -t 12.564774178 -s 4 -d 9 -p ack -e 40 -c 2 -a 0 -i 3 -k RTR
h -t 12.564774178 -s 4 -d 9 -p ack -e 40 -c 2 -a 0 -i 3 -k RTR
+ -t 12.566840460 -s 9 -d 12 -p ack -e 40 -c 2 -a 0 -i 3 -k RTR 
- -t 12.566840460 -s 9 -d 12 -p ack -e 40 -c 2 -a 0 -i 3 -k RTR
h -t 12.566840460 -s 9 -d 12 -p ack -e 40 -c 2 -a 0 -i 3 -k RTR
+ -t 12.568966541 -s 12 -d 10 -p ack -e 40 -c 2 -a 0 -i 3 -k RTR 
- -t 12.568966541 -s 12 -d 10 -p ack -e 40 -c 2 -a 0 -i 3 -k RTR
h -t 12.568966541 -s 12 -d 10 -p ack -e 40 -c 2 -a 0 -i 3 -k RTR
+ -t 12.570852424 -s 10 -d 13 -p ack -e 40 -c 2 -a 0 -i 3 -k RTR 
- -t 12.570852424 -s 10 -d 13 -p ack -e 40 -c 2 -a 0 -i 3 -k RTR
h -t 12.570852424 -s 10 -d 13 -p ack -e 40 -c 2 -a 0 -i 3 -k RTR
+ -t 12.572698719 -s 13 -d 0 -p ack -e 40 -c 2 -a 0 -i 3 -k RTR 
- -t 12.572698719 -s 13 -d 0 -p ack -e 40 -c 2 -a 0 -i 3 -k RTR
h -t 12.572698719 -s 13 -d 0 -p ack -e 40 -c 2 -a 0 -i 3 -k RTR
+ -t 12.573963970 -s 0 -d 13 -p tcp -e 40 -c 2 -a 0 -i 2 -k RTR 
- -t 12.573963970 -s 0 -d 13 -p tcp -e 40 -c 2 -a 0 -i 2 -k RTR
h -t 12.573963970 -s 0 -d 13 -p tcp -e 40 -c 2 -a 0 -i 2 -k RTR
+ -t 12.574714891 -s 13 -d 10 -p tcp -e 40 -c 2 -a 0 -i 1 -k RTR 
- -t 12.574714891 -s 13 -d 10 -p tcp -e 40 -c 2 -a 0 -i 1 -k RTR
h -t 12.574714891 -s 13 -d 10 -p tcp -e 40 -c 2 -a 0 -i 1 -k RTR
r -t 12.576740557 -s 0 -d 0 -p ack -e 40 -c 2 -a 0 -i 3 -k AGT
+ -t 12.576740557 -s 0 -d -1 -p tcp -e 1540 -c 2 -a 0 -i 4 -k AGT 
- -t 12.576740557 -s 0 -d -1 -p tcp -e 1540 -c 2 -a 0 -i 4 -k AGT
h -t 12.576740557 -s 0 -d -1 -p tcp -e 1540 -c 2 -a 0 -i 4 -k AGT
+ -t 12.576740557 -s 0 -d 13 -p tcp -e 1540 -c 2 -a 0 -i 4 -k RTR 
- -t 12.576740557 -s 0 -d 13 -p tcp -e 1540 -c 2 -a 0 -i 4 -k RTR
h -t 12.576740557 -s 0 -d 13 -p tcp -e 1540 -c 2 -a 0 -i 4 -k RTR
+ -t 12.578567406 -s 10 -d 12 -p tcp -e 40 -c 2 -a 0 -i 1 -k RTR 
- -t 12.578567406 -s 10 -d 12 -p tcp -e 40 -c 2 -a 0 -i 1 -k RTR
h -t 12.578567406 -s 10 -d 12 -p tcp -e 40 -c 2 -a 0 -i 1 -k RTR
+ -t 12.580573289 -s 12 -d 9 -p tcp -e 40 -c 2 -a 0 -i 1 -k RTR 
- -t 12.580573289 -s 12 -d 9 -p tcp -e 40 -c 2 -a 0 -i 1 -k RTR
h -t 12.580573289 -s 12 -d 9 -p tcp -e 40 -c 2 -a 0 -i 1 -k RTR
+ -t 12.582759370 -s 9 -d 4 -p tcp -e 40 -c 2 -a 0 -i 1 -k RTR 
- -t 12.582759370 -s 9 -d 4 -p tcp -e 40 -c 2 -a 0 -i 1 -k RTR
h -t 12.582759370 -s 9 -d 4 -p tcp -e 40 -c 2 -a 0 -i 1 -k RTR
+ -t 12.584990829 -s 13 -d 10 -p tcp -e 40 -c 2 -a 0 -i 2 -k RTR 
- -t 12.584990829 -s 13 -d 10 -p tcp -e 40 -c 2 -a 0 -i 2 -k RTR
h -t 12.584990829 -s 13 -d 10 -p tcp -e 40 -c 2 -a 0 -i 2 -k RTR
+ -t 12.586957122 -s 10 -d 12 -p tcp -e 40 -c 2 -a 0 -i 2 -k RTR 
- -t 12.586957122 -s 10 -d 12 -p tcp -e 40 -c 2 -a 0 -i 2 -k RTR
h -t 12.586957122 -s 10 -d 12 -p tcp -e 40 -c 2 -a 0 -i 2 -k RTR
r -t 12.589248473 -s 4 -d 4 -p tcp -e 40 -c 2 -a 0 -i 1 -k AGT
+ -t 12.589248473 -s 4 -d -1 -p ack -e 40 -c 2 -a 0 -i 5 -k AGT 
- -t 12.589248473 -s 4 -d -1 -p ack -e 40 -c 2 -a 0 -i 5 -k AGT
h -t 12.589248473 -s 4 -d -1 -p ack -e 40 -c 2 -a 0 -i 5 -k AGT
+ -t 12.589248473 -s 4 -d 9 -p ack -e 40 -c 2 -a 0 -i 5 -k RTR 
- -t 12.589248473 -s 4 -d 9 -p ack -e 40 -c 2 -a 0 -i 5 -k RTR
h -t 12.589248473 -s 4 -d 9 -p ack -e 40 -c 2 -a 0 -i 5 -k RTR
+ -t 12.591519659 -s 12 -d 9 -p tcp -e 40 -c 2 -a 0 -i 2 -k RTR 
- -t 12.591519659 -s 12 -d 9 -p tcp -e 40 -c 2 -a 0 -i 2 -k RTR
h -t 12.591519659 -s 12 -d 9 -p tcp -e 40 -c 2 -a 0 -i 2 -k RTR
+ -t 12.593345740 -s 9 -d 4 -p tcp -e 40 -c 2 -a 0 -i 2 -k RTR 
- -t 12.593345740 -s 9 -d 4 -p tcp -e 40 -c 2 -a 0 -i 2 -k RTR
h -t 12.593345740 -s 9 -d 4 -p tcp -e 40 -c 2 -a 0 -i 2 -k RTR
+ -t 12.595262604 -s 9 -d 12 -p ack -e 40 -c 2 -a 0 -i 5 -k RTR 
- -t 12.595262604 -s 9 -d 12 -p ack -e 40 -c 2 -a 0 -i 5 -k RTR
h -t 12.595262604 -s 9 -d 12 -p ack -e 40 -c 2 -a 0 -i 5 -k RTR
r -t 12.597568883 -s 4 -d 4 -p tcp -e 40 -c 2 -a 0 -i 2 -k AGT
+ -t 12.597568883 -s 4 -d -1 -p ack -e 40 -c 2 -a 0 -i 6 -k AGT 
- -t 12.597568883 -s 4 -d -1 -p ack -e 40 -c 2 -a 0 -i 6 -k AGT
h -t 12.597568883 -s 4 -d -1 -p ack -e 40 -c 2 -a 0 -i 6 -k AGT
+ -t 12.597568883 -s 4 -d 9 -p ack -e 40 -c 2 -a 0 -i 6 -k RTR 
- -t 12.597568883 -s 4 -d 9 -p ack -e 40 -c 2 -a 0 -i 6 -k RTR
h -t 12.597568883 -s 4 -d 9 -p ack -e 40 -c 2 -a 0 -i 6 -k RTR
+ -t 12.599715162 -s 9 -d 12 -p ack -e 40 -c 2 -a 0 -i 6 -k RTR 
- -t 12.599715162 -s 9 -d 12 -p ack -e 40 -c 2 -a 0 -i 6 -k RTR
h -t 12.599715162 -s 9 -d 12 -p ack -e 40 -c 2 -a 0 -i 6 -k RTR
+ -t 12.601721244 -s 12 -d 10 -p ack -e 40 -c 2 -a 0 -i 5 -k RTR 
- -t 12.601721244 -s 12 -d 10 -p ack -e 40 -c 2 -a 0 -i 5 -k RTR
h -t 12.601721244 -s 12 -d 10 -p ack -e 40 -c 2 -a 0 -i 5 -k RTR
+ -t 12.616032694 -s 13 -d 10 -p tcp -e 1540 -c 2 -a 0 -i 4 -k RTR 
- -t 12.616032694 -s 13 -d 10 -p tcp -e 1540 -c 2 -a 0 -i 4 -k RTR
h -t 12.616032694 -s 13 -d 10 -p tcp -e 1540 -c 2 -a 0 -i 4 -k RTR
+ -t 12.629938986 -s 10 -d 12 -p tcp -e 1540 -c 2 -a 0 -i 4 -k RTR 
- -t 12.629938986 -s 10 -d 12 -p tcp -e 1540 -c 2 -a 0 -i 4 -k RTR
h -t 12.629938986 -s 10 -d 12 -p tcp -e 1540 -c 2 -a 0 -i 4 -k RTR
+ -t 12.643764867 -s 12 -d 9 -p tcp -e 1540 -c 2 -a 0 -i 4 -k RTR 
- -t 12.643764867 -s 12 -d 9 -p tcp -e 1540 -c 2 -a 0 -i 4 -k RTR
h -t 12.643764867 -s 12 -d 9 -p tcp -e 1540 -c 2 -a 0 -i 4 -k RTR
+ -t 12.645630748 -s 10 -d 13 -p ack -e 40 -c 2 -a 0 -i 5 -k RTR 
- -t 12.645630748 -s 10 -d 13 -p ack -e 40 -c 2 -a 0 -i 5 -k RTR
h -t 12.645630748 -s 10 -d 13 -p ack -e 40 -c 2 -a 0 -i 5 -k RTR
+ -t 12.647757038 -s 13 -d 0 -p ack -e 40 -c 2 -a 0 -i 5 -k RTR 
- -t 12.647757038 -s 13 -d 0 -p ack -e 40 -c 2 -a 0 -i 5 -k RTR
h -t 12.647757038 -s 13 -d 0 -p ack -e 40 -c 2 -a 0 -i 5 -k RTR
r -t 12.649902706 -s 0 -d 0 -p ack -e 40 -c 2 -a 0 -i 5 -k AGT
+ -t 12.649902706 -s 0 -d -1 -p tcp -e 1540 -c 2 -a 0 -i 7 -k AGT 
- -t 12.649902706 -s 0 -d -1 -p tcp -e 1540 -c 2 -a 0 -i 7 -k AGT
h -t 12.649902706 -s 0 -d -1 -p tcp -e 1540 -c 2 -a 0 -i 7 -k AGT
+ -t 12.649902706 -s 0 -d 13 -p tcp -e 1540 -c 2 -a 0 -i 7 -k RTR 
- -t 12.649902706 -s 0 -d 13 -p tcp -e 1540 -c 2 -a 0 -i 7 -k RTR
h -t 12.649902706 -s 0 -d 13 -p tcp -e 1540 -c 2 -a 0 -i 7 -k RTR
+ -t 12.663988373 -s 13 -d 10 -p tcp -e 1540 -c 2 -a 0 -i 7 -k RTR 
- -t 12.663988373 -s 13 -d 10 -p tcp -e 1540 -c 2 -a 0 -i 7 -k RTR
h -t 12.663988373 -s 13 -d 10 -p tcp -e 1540 -c 2 -a 0 -i 7 -k RTR
+ -t 12.677854662 -s 10 -d 12 -p tcp -e 1540 -c 2 -a 0 -i 7 -k RTR 
- -t 12.677854662 -s 10 -d 12 -p tcp -e 1540 -c 2 -a 0 -i 7 -k RTR
h -t 12.677854662 -s 10 -d 12 -p tcp -e 1540 -c 2 -a 0 -i 7 -k RTR
+ -t 12.691800542 -s 12 -d 9 -p tcp -e 1540 -c 2 -a 0 -i 7 -k RTR 
- -t 12.691800542 -s 12 -d 9 -p tcp -e 1540 -c 2 -a 0 -i 7 -k RTR
h -t 12.691800542 -s 12 -d 9 -p tcp -e 1540 -c 2 -a 0 -i 7 -k RTR
+ -t 12.705666623 -s 9 -d 4 -p tcp -e 1540 -c 2 -a 0 -i 4 -k RTR 
- -t 12.705666623 -s 9 -d 4 -p tcp -e 1540 -c 2 -a 0 -i 4 -k RTR
h -t 12.705666623 -s 9 -d 4 -p tcp -e 1540 -c 2 -a 0 -i 4 -k RTR
+ -t 12.719493399 -s 9 -d 4 -p tcp -e 1540 -c 2 -a 0 -i 7 -k RTR 
- -t 12.719493399 -s 9 -d 4 -p tcp -e 1540 -c 2 -a 0 -i 7 -k RTR
h -t 12.719493399 -s 9 -d 4 -p tcp -e 1540 -c 2 -a 0 -i 7 -k RTR
+ -t 12.721339481 -s 12 -d 10 -p ack -e 40 -c 2 -a 0 -i 6 -k RTR 
- -t 12.721339481 -s 12 -d 10 -p ack -e 40 -c 2 -a 0 -i 6 -k RTR
h -t 12.721339481 -s 12 -d 10 -p ack -e 40 -c 2 -a 0 -i 6 -k RTR
+ -t 12.723225360 -s 10 -d 13 -p ack -e 40 -c 2 -a 0 -i 6 -k RTR 
- -t 12.723225360 -s 10 -d 13 -p ack -e 40 -c 2 -a 0 -i 6 -k RTR
h -t 12.723225360 -s 10 -d 13 -p ack -e 40 -c 2 -a 0 -i 6 -k RTR
+ -t 12.725511645 -s 13 -d 0 -p ack -e 40 -c 2 -a 0 -i 6 -k RTR 
- -t 12.725511645 -s 13 -d 0 -p ack -e 40 -c 2 -a 0 -i 6 -k RTR
h -t 12.725511645 -s 13 -d 0 -p ack -e 40 -c 2 -a 0 -i 6 -k RTR
r -t 12.727497314 -s 0 -d 0 -p ack -e 40 -c 2 -a 0 -i 6 -k AGT
+ -t 12.727497314 -s 0 -d -1 -p tcp -e 1540 -c 2 -a 0 -i 8 -k AGT 
- -t 12.727497314 -s 0 -d -1 -p tcp -e 1540 -c 2 -a 0 -i 8 -k AGT
h -t 12.727497314 -s 0 -d -1 -p tcp -e 1540 -c 2 -a 0 -i 8 -k AGT
+ -t 12.727497314 -s 0 -d 13 -p tcp -e 1540 -c 2 -a 0 -i 8 -k RTR 
- -t 12.727497314 -s 0 -d 13 -p tcp -e 1540 -c 2 -a 0 -i 8 -k RTR
h -t 12.727497314 -s 0 -d 13 -p tcp -e 1540 -c 2 -a 0 -i 8 -k RTR
+ -t 12.741502983 -s 13 -d 10 -p tcp -e 1540 -c 2 -a 0 -i 8 -k RTR 
- -t 12.741502983 -s 13 -d 10 -p tcp -e 1540 -c 2 -a 0 -i 8 -k RTR
h -t 12.741502983 -s 13 -d 10 -p tcp -e 1540 -c 2 -a 0 -i 8 -k RTR
+ -t 12.755549266 -s 10 -d 12 -p tcp -e 1540 -c 2 -a 0 -i 8 -k RTR 
- -t 12.755549266 -s 10 -d 12 -p tcp -e 1540 -c 2 -a 0 -i 8 -k RTR
h -t 12.755549266 -s 10 -d 12 -p tcp -e 1540 -c 2 -a 0 -i 8 -k RTR
+ -t 12.769435144 -s 12 -d 9 -p tcp -e 1540 -c 2 -a 0 -i 8 -k RTR 
- -t 12.769435144 -s 12 -d 9 -p tcp -e 1540 -c 2 -a 0 -i 8 -k RTR
h -t 12.769435144 -s 12 -d 9 -p tcp -e 1540 -c 2 -a 0 -i 8 -k RTR
+ -t 12.783361226 -s 9 -d 4 -p tcp -e 1540 -c 2 -a 0 -i 8 -k RTR 
- -t 12.783361226 -s 9 -d 4 -p tcp -e 1540 -c 2 -a 0 -i 8 -k RTR
h -t 12.783361226 -s 9 -d 4 -p tcp -e 1540 -c 2 -a 0 -i 8 -k RTR
r -t 12.797567488 -s 4 -d 4 -p tcp -e 1540 -c 2 -a 0 -i 4 -k AGT
+ -t 12.797567488 -s 4 -d -1 -p ack -e 40 -c 2 -a 0 -i 9 -k AGT 
- -t 12.797567488 -s 4 -d -1 -p ack -e 40 -c 2 -a 0 -i 9 -k AGT
h -t 12.797567488 -s 4 -d -1 -p ack -e 40 -c 2 -a 0 -i 9 -k AGT
+ -t 12.797567488 -s 4 -d 9 -p ack -e 40 -c 2 -a 0 -i 9 -k RTR 
- -t 12.797567488 -s 4 -d 9 -p ack -e 40 -c 2 -a 0 -i 9 -k RTR
h -t 12.797567488 -s 4 -d 9 -p ack -e 40 -c 2 -a 0 -i 9 -k RTR
r -t 12.811714501 -s 4 -d 4 -p tcp -e 1540 -c 2 -a 0 -i 7 -k AGT
+ -t 12.811714501 -s 4 -d -1 -p ack -e 40 -c 2 -a 0 -i 10 -k AGT 
- -t 12.811714501 -s 4 -d -1 -p ack -e 40 -c 2 -a 0 -i 10 -k AGT
h -t 12.811714501 -s 4 -d -1 -p ack -e 40 -c 2 -a 0 -i 10 -k AGT
+ -t 12.811714501 -s 4 -d 9 -p ack -e 40 -c 2 -a 0 -i 10 -k RTR 
- -t 12.811714501 -s 4 -d 9 -p ack -e 40 -c 2 -a 0 -i 10 -k RTR
h -t 12.811714501 -s 4 -d 9 -p ack -e 40 -c 2 -a 0 -i 10 -k RTR
+ -t 12.813740759 -s 9 -d 12 -p ack -e 40 -c 2 -a 0 -i 9 -k RTR 
- -t 12.813740759 -s 9 -d 12 -p ack -e 40 -c 2 -a 0 -i 9 -k RTR
h -t 12.813740759 -s 9 -d 12 -p ack -e 40 -c 2 -a 0 -i 9 -k RTR
+ -t 12.815607770 -s 9 -d 12 -p ack -e 40 -c 2 -a 0 -i 10 -k RTR 
- -t 12.815607770 -s 9 -d 12 -p ack -e 40 -c 2 -a 0 -i 10 -k RTR
h -t 12.815607770 -s 9 -d 12 -p ack -e 40 -c 2 -a 0 -i 10 -k RTR
r -t 12.829494028 -s 4 -d 4 -p tcp -e 1540 -c 2 -a 0 -i 8 -k AGT
+ -t 12.829494028 -s 4 -d -1 -p ack -e 40 -c 2 -a 0 -i 11 -k AGT 
- -t 12.829494028 -s 4 -d -1 -p ack -e 40 -c 2 -a 0 -i 11 -k AGT
h -t 12.829494028 -s 4 -d -1 -p ack -e 40 -c 2 -a 0 -i 11 -k AGT
+ -t 12.829494028 -s 4 -d 9 -p ack -e 40 -c 2 -a 0 -i 11 -k RTR 
- -t 12.829494028 -s 4 -d 9 -p ack -e 40 -c 2 -a 0 -i 11 -k RTR
h -t 12.829494028 -s 4 -d 9 -p ack -e 40 -c 2 -a 0 -i 11 -k RTR
+ -t 12.831540285 -s 9 -d 12 -p ack -e 40 -c 2 -a 0 -i 11 -k RTR 
- -t 12.831540285 -s 9 -d 12 -p ack -e 40 -c 2 -a 0 -i 11 -k RTR
h -t 12.831540285 -s 9 -d 12 -p ack -e 40 -c 2 -a 0 -i 11 -k RTR
+ -t 12.833526367 -s 12 -d 10 -p ack -e 40 -c 2 -a 0 -i 9 -k RTR 
- -t 12.833526367 -s 12 -d 10 -p ack -e 40 -c 2 -a 0 -i 9 -k RTR
h -t 12.833526367 -s 12 -d 10 -p ack -e 40 -c 2 -a 0 -i 9 -k RTR
+ -t 12.835512243 -s 10 -d 13 -p ack -e 40 -c 2 -a 0 -i 9 -k RTR 
- -t 12.835512243 -s 10 -d 13 -p ack -e 40 -c 2 -a 0 -i 9 -k RTR
h -t 12.835512243 -s 10 -d 13 -p ack -e 40 -c 2 -a 0 -i 9 -k RTR
+ -t 12.837618521 -s 13 -d 0 -p ack -e 40 -c 2 -a 0 -i 9 -k RTR 
- -t 12.837618521 -s 13 -d 0 -p ack -e 40 -c 2 -a 0 -i 9 -k RTR
h -t 12.837618521 -s 13 -d 0 -p ack -e 40 -c 2 -a 0 -i 9 -k RTR
r -t 12.839544192 -s 0 -d 0 -p ack -e 40 -c 2 -a 0 -i 9 -k AGT
+ -t 12.841916064 -s 12 -d 10 -p ack -e 40 -c 2 -a 0 -i 10 -k RTR 
- -t 12.841916064 -s 12 -d 10 -p ack -e 40 -c 2 -a 0 -i 10 -k RTR
h -t 12.841916064 -s 12 -d 10 -p ack -e 40 -c 2 -a 0 -i 10 -k RTR
+ -t 12.844002841 -s 12 -d 10 -p ack -e 40 -c 2 -a 0 -i 11 -k RTR 
- -t 12.844002841 -s 12 -d 10 -p ack -e 40 -c 2 -a 0 -i 11 -k RTR
h -t 12.844002841 -s 12 -d 10 -p ack -e 40 -c 2 -a 0 -i 11 -k RTR
+ -t 12.846028716 -s 10 -d 13 -p ack -e 40 -c 2 -a 0 -i 10 -k RTR 
- -t 12.846028716 -s 10 -d 13 -p ack -e 40 -c 2 -a 0 -i 10 -k RTR
h -t 12.846028716 -s 10 -d 13 -p ack -e 40 -c 2 -a 0 -i 10 -k RTR
+ -t 12.848095217 -s 10 -d 13 -p ack -e 40 -c 2 -a 0 -i 11 -k RTR 
- -t 12.848095217 -s 10 -d 13 -p ack -e 40 -c 2 -a 0 -i 11 -k RTR
h -t 12.848095217 -s 10 -d 13 -p ack -e 40 -c 2 -a 0 -i 11 -k RTR
+ -t 12.850101494 -s 13 -d 0 -p ack -e 40 -c 2 -a 0 -i 10 -k RTR 
- -t 12.850101494 -s 13 -d 0 -p ack -e 40 -c 2 -a 0 -i 10 -k RTR