M 1.00000 0 (754.00, 431.00, 0.00), (296.00, 158.00), 4.00
M 1.00000 1 (680.00, 859.00, 0.00), (900.00, 496.00), 5.00
M 1.00000 2 (964.00, 826.00, 0.00), (186.00, 442.00), 8.00
M 1.00000 3 (392.00, 351.00, 0.00), (595.00, 925.00), 8.00
M 1.00000 4 (539.00, 827.00, 0.00), (52.00, 138.00), 9.00
M 1.00000 5 (711.00, 513.00, 0.00), (46.00, 348.00), 2.00
M 1.00000 6 (828.00, 786.00, 0.00), (930.00, 911.00), 3.00
M 1.00000 7 (66.00, 814.00, 0.00), (610.00, 38.00), 9.00
M 1.00000 8 (960.00, 389.00, 0.00), (385.00, 856.00), 8.00
M 1.00000 9 (227.00, 672.00, 0.00), (680.00, 944.00), 3.00
M 1.00000 10 (298.00, 333.00, 0.00), (567.00, 669.00), 5.00
M 1.00000 11 (881.00, 975.00, 0.00), (936.00, 420.00), 4.00
M 1.00000 12 (140.00, 488.00, 0.00), (849.00, 584.00), 4.00
M 1.00000 13 (595.00, 393.00, 0.00), (223.00, 877.00), 6.00
M 1.00000 14 (879.00, 945.00, 0.00), (532.00, 329.00), 7.00
s 1.000000000 _0_ AGT  --- 0 tcp 40 [0 0 0 0] ------- [0:0 4:0 32 0] [0 0] 0 0
r 1.000000000 _0_ RTR  --- 0 tcp 40 [0 0 0 0] ------- [0:0 4:0 32 0] [0 0] 0 0
s 1.000000000 _0_ RTR  --- 0 AODV 48 [0 0 0 0] ------- [0:255 -1:255 30 0] [0x2 1 1 [4 0] [0 4]] (REQUEST)
r 1.000988309 _5_ RTR  --- 0 AODV 48 [0 ffffffff 0 800] ------- [0:255 -1:255 30 0] [0x2 1 1 [4 0] [0 4]] (REQUEST)
r 1.000988545 _13_ RTR  --- 0 AODV 48 [0 ffffffff 0 800] ------- [0:255 -1:255 30 0] [0x2 1 1 [4 0] [0 4]] (REQUEST)
r 1.000988701 _8_ RTR  --- 0 AODV 48 [0 ffffffff 0 800] ------- [0:255 -1:255 30 0] [0x2 1 1 [4 0] [0 4]] (REQUEST)
s 1.001869535 _5_ RTR  --- 0 AODV 48 [0 ffffffff 0 800] ------- [5:255 -1:255 29 0] [0x2 2 1 [4 0] [0 4]] (REQUEST)
r 1.002977844 _0_ RTR  --- 0 AODV 48 [0 ffffffff 5 800] ------- [5:255 -1:255 29 0] [0x2 2 1 [4 0] [0 4]] (REQUEST)
r 1.002978092 _13_ RTR  --- 0 AODV 48 [0 ffffffff 5 800] ------- [5:255 -1:255 29 0] [0x2 2 1 [4 0] [0 4]] (REQUEST)
s 1.005400279 _13_ RTR  --- 0 AODV 48 [0 ffffffff 0 800] ------- [13:255 -1:255 29 0] [0x2 2 1 [4 0] [0 4]] (REQUEST)
r 1.006588824 _0_ RTR  --- 0 AODV 48 [0 ffffffff d 800] ------- [13:255 -1:255 29 0] [0x2 2 1 [4 0] [0 4]] (REQUEST)
r 1.006588835 _5_ RTR  --- 0 AODV 48 [0 ffffffff d 800] ------- [13:255 -1:255 29 0] [0x2 2 1 [4 0] [0 4]] (REQUEST)
r 1.006588970 _3_ RTR  --- 0 AODV 48 [0 ffffffff d 800] ------- [13:255 -1:255 29 0] [0x2 2 1 [4 0] [0 4]] (REQUEST)
s 1.008980255 _8_ RTR  --- 0 AODV 48 [0 ffffffff 0 800] ------- [8:255 -1:255 29 0] [0x2 2 1 [4 0] [0 4]] (REQUEST)
s 1.009679760 _3_ RTR  --- 0 AODV 48 [0 ffffffff d 800] ------- [3:255 -1:255 28 0] [0x2 3 1 [4 0] [0 4]] (REQUEST)
r 1.010668079 _10_ RTR  --- 0 AODV 48 [0 ffffffff 3 800] ------- [3:255 -1:255 28 0] [0x2 3 1 [4 0] [0 4]] (REQUEST)
s 1.011806162 _10_ RTR  --- 0 AODV 48 [0 ffffffff 3 800] ------- [10:255 -1:255 27 0] [0x2 4 1 [4 0] [0 4]] (REQUEST)
r 1.012994481 _3_ RTR  --- 0 AODV 48 [0 ffffffff a 800] ------- [10:255 -1:255 27 0] [0x2 4 1 [4 0] [0 4]] (REQUEST)
r 1.012994899 _12_ RTR  --- 0 AODV 48 [0 ffffffff a 800] ------- [10:255 -1:255 27 0] [0x2 4 1 [4 0] [0 4]] (REQUEST)
s 1.014742952 _12_ RTR  --- 0 AODV 48 [0 ffffffff a 800] ------- [12:255 -1:255 26 0] [0x2 5 1 [4 0] [0 4]] (REQUEST)
r 1.016031630 _9_ RTR  --- 0 AODV 48 [0 ffffffff c 800] ------- [12:255 -1:255 26 0] [0x2 5 1 [4 0] [0 4]] (REQUEST)
r 1.016031690 _10_ RTR  --- 0 AODV 48 [0 ffffffff c 800] ------- [12:255 -1:255 26 0] [0x2 5 1 [4 0] [0 4]] (REQUEST)
s 1.019519041 _9_ RTR  --- 0 AODV 48 [0 ffffffff c 800] ------- [9:255 -1:255 25 0] [0x2 6 1 [4 0] [0 4]] (REQUEST)
r 1.020687719 _12_ RTR  --- 0 AODV 48 [0 ffffffff 9 800] ------- [9:255 -1:255 25 0] [0x2 6 1 [4 0] [0 4]] (REQUEST)
r 1.020687756 _7_ RTR  --- 0 AODV 48 [0 ffffffff 9 800] ------- [9:255 -1:255 25 0] [0x2 6 1 [4 0] [0 4]] (REQUEST)
s 1.025874244 _7_ RTR  --- 0 AODV 48 [0 ffffffff 9 800] ------- [7:255 -1:255 24 0] [0x2 7 1 [4 0] [0 4]] (REQUEST)
r 1.027262959 _9_ RTR  --- 0 AODV 48 [0 ffffffff 7 800] ------- [7:255 -1:255 24 0] [0x2 7 1 [4 0] [0 4]] (REQUEST)
s 3.000000000 _0_ RTR  --- 0 AODV 48 [0 0 0 0] ------- [0:255 -1:255 30 0] [0x2 1 2 [4 0] [0 6]] (REQUEST)
r 3.001528314 _5_ RTR  --- 0 AODV 48 [0 ffffffff 0 800] ------- [0:255 -1:255 30 0] [0x2 1 2 [4 0] [0 6]] (REQUEST)
r 3.001528538 _13_ RTR  --- 0 AODV 48 [0 ffffffff 0 800] ------- [0:255 -1:255 30 0] [0x2 1 2 [4 0] [0 6]] (REQUEST)
r 3.001528675 _8_ RTR  --- 0 AODV 48 [0 ffffffff 0 800] ------- [0:255 -1:255 30 0] [0x2 1 2 [4 0] [0 6]] (REQUEST)
s 3.003699908 _5_ RTR  --- 0 AODV 48 [0 ffffffff 0 800] ------- [5:255 -1:255 29 0] [0x2 2 2 [4 0] [0 6]] (REQUEST)
s 3.003940794 _13_ RTR  --- 0 AODV 48 [0 ffffffff 0 800] ------- [13:255 -1:255 29 0] [0x2 2 2 [4 0] [0 6]] (REQUEST)
r 3.004948222 _0_ RTR  --- 0 AODV 48 [0 ffffffff 5 800] ------- [5:255 -1:255 29 0] [0x2 2 2 [4 0] [0 6]] (REQUEST)
r 3.004948448 _13_ RTR  --- 0 AODV 48 [0 ffffffff 5 800] ------- [5:255 -1:255 29 0] [0x2 2 2 [4 0] [0 6]] (REQUEST)
r 3.006166986 _0_ RTR  --- 0 AODV 48 [0 ffffffff d 800] ------- [13:255 -1:255 29 0] [0x2 2 2 [4 0] [0 6]] (REQUEST)
r 3.006166988 _5_ RTR  --- 0 AODV 48 [0 ffffffff d 800] ------- [13:255 -1:255 29 0] [0x2 2 2 [4 0] [0 6]] (REQUEST)
r 3.006167094 _3_ RTR  --- 0 AODV 48 [0 ffffffff d 800] ------- [13:255 -1:255 29 0] [0x2 2 2 [4 0] [0 6]] (REQUEST)
s 3.007259079 _3_ RTR  --- 0 AODV 48 [0 ffffffff d 800] ------- [3:255 -1:255 28 0] [0x2 3 2 [4 0] [0 6]] (REQUEST)
r 3.008407400 _10_ RTR  --- 0 AODV 48 [0 ffffffff 3 800] ------- [3:255 -1:255 28 0] [0x2 3 2 [4 0] [0 6]] (REQUEST)
r 3.008407725 _13_ RTR  --- 0 AODV 48 [0 ffffffff 3 800] ------- [3:255 -1:255 28 0] [0x2 3 2 [4 0] [0 6]] (REQUEST)
s 3.010039740 _8_ RTR  --- 0 AODV 48 [0 ffffffff 0 800] ------- [8:255 -1:255 29 0] [0x2 2 2 [4 0] [0 6]] (REQUEST)
r 3.011208415 _0_ RTR  --- 0 AODV 48 [0 ffffffff 8 800] ------- [8:255 -1:255 29 0] [0x2 2 2 [4 0] [0 6]] (REQUEST)
s 3.017281836 _10_ RTR  --- 0 AODV 48 [0 ffffffff 3 800] ------- [10:255 -1:255 27 0] [0x2 4 2 [4 0] [0 6]] (REQUEST)
r 3.018810157 _3_ RTR  --- 0 AODV 48 [0 ffffffff a 800] ------- [10:255 -1:255 27 0] [0x2 4 2 [4 0] [0 6]] (REQUEST)
r 3.018810554 _12_ RTR  --- 0 AODV 48 [0 ffffffff a 800] ------- [10:255 -1:255 27 0] [0x2 4 2 [4 0] [0 6]] (REQUEST)
s 3.018918637 _12_ RTR  --- 0 AODV 48 [0 ffffffff a 800] ------- [12:255 -1:255 26 0] [0x2 5 2 [4 0] [0 6]] (REQUEST)
r 3.020207318 _9_ RTR  --- 0 AODV 48 [0 ffffffff c 800] ------- [12:255 -1:255 26 0] [0x2 5 2 [4 0] [0 6]] (REQUEST)
r 3.020207355 _10_ RTR  --- 0 AODV 48 [0 ffffffff c 800] ------- [12:255 -1:255 26 0] [0x2 5 2 [4 0] [0 6]] (REQUEST)
s 3.021438353 _9_ RTR  --- 0 AODV 48 [0 ffffffff c 800] ------- [9:255 -1:255 25 0] [0x2 6 2 [4 0] [0 6]] (REQUEST)
r 3.022567016 _7_ RTR  --- 0 AODV 48 [0 ffffffff 9 800] ------- [9:255 -1:255 25 0] [0x2 6 2 [4 0] [0 6]] (REQUEST)
r 3.022567034 _12_ RTR  --- 0 AODV 48 [0 ffffffff 9 800] ------- [9:255 -1:255 25 0] [0x2 6 2 [4 0] [0 6]] (REQUEST)
s 3.029553749 _7_ RTR  --- 0 AODV 48 [0 ffffffff 9 800] ------- [7:255 -1:255 24 0] [0x2 7 2 [4 0] [0 6]] (REQUEST)
r 3.030502412 _9_ RTR  --- 0 AODV 48 [0 ffffffff 7 800] ------- [7:255 -1:255 24 0] [0x2 7 2 [4 0] [0 6]] (REQUEST)
s 4.000000000 _0_ AGT  --- 1 tcp 40 [0 0 0 0] ------- [0:0 4:0 32 0] [0 0] 0 0
r 4.000000000 _0_ RTR  --- 1 tcp 40 [0 0 0 0] ------- [0:0 4:0 32 0] [0 0] 0 0
s 7.000000000 _0_ RTR  --- 0 AODV 48 [0 0 0 0] ------- [0:255 -1:255 30 0] [0x2 1 3 [4 0] [0 8]] (REQUEST)
r 7.001268325 _5_ RTR  --- 0 AODV 48 [0 ffffffff 0 800] ------- [0:255 -1:255 30 0] [0x2 1 3 [4 0] [0 8]] (REQUEST)
r 7.001268534 _13_ RTR  --- 0 AODV 48 [0 ffffffff 0 800] ------- [0:255 -1:255 30 0] [0x2 1 3 [4 0] [0 8]] (REQUEST)
r 7.001268631 _8_ RTR  --- 0 AODV 48 [0 ffffffff 0 800] ------- [0:255 -1:255 30 0] [0x2 1 3 [4 0] [0 8]] (REQUEST)
s 7.001544109 _13_ RTR  --- 0 AODV 48 [0 ffffffff 0 800] ------- [13:255 -1:255 29 0] [0x2 2 3 [4 0] [0 8]] (REQUEST)
r 7.002492623 _5_ RTR  --- 0 AODV 48 [0 ffffffff d 800] ------- [13:255 -1:255 29 0] [0x2 2 3 [4 0] [0 8]] (REQUEST)
r 7.002492644 _0_ RTR  --- 0 AODV 48 [0 ffffffff d 800] ------- [13:255 -1:255 29 0] [0x2 2 3 [4 0] [0 8]] (REQUEST)
r 7.002492666 _3_ RTR  --- 0 AODV 48 [0 ffffffff d 800] ------- [13:255 -1:255 29 0] [0x2 2 3 [4 0] [0 8]] (REQUEST)
s 7.004541801 _8_ RTR  --- 0 AODV 48 [0 ffffffff 0 800] ------- [8:255 -1:255 29 0] [0x2 2 3 [4 0] [0 8]] (REQUEST)
s 7.005525198 _5_ RTR  --- 0 AODV 48 [0 ffffffff 0 800] ------- [5:255 -1:255 29 0] [0x2 2 3 [4 0] [0 8]] (REQUEST)
r 7.005770432 _0_ RTR  --- 0 AODV 48 [0 ffffffff 8 800] ------- [8:255 -1:255 29 0] [0x2 2 3 [4 0] [0 8]] (REQUEST)
r 7.005770605 _5_ RTR  --- 0 AODV 48 [0 ffffffff 8 800] ------- [8:255 -1:255 29 0] [0x2 2 3 [4 0] [0 8]] (REQUEST)
r 7.006688930 _0_ RTR  --- 0 AODV 48 [0 ffffffff 5 800] ------- [5:255 -1:255 29 0] [0x2 2 3 [4 0] [0 8]] (REQUEST)
r 7.006689119 _13_ RTR  --- 0 AODV 48 [0 ffffffff 5 800] ------- [5:255 -1:255 29 0] [0x2 2 3 [4 0] [0 8]] (REQUEST)
r 7.006689409 _8_ RTR  --- 0 AODV 48 [0 ffffffff 5 800] ------- [5:255 -1:255 29 0] [0x2 2 3 [4 0] [0 8]] (REQUEST)
s 7.011960828 _3_ RTR  --- 0 AODV 48 [0 ffffffff d 800] ------- [3:255 -1:255 28 0] [0x2 3 3 [4 0] [0 8]] (REQUEST)
r 7.013029160 _10_ RTR  --- 0 AODV 48 [0 ffffffff 3 800] ------- [3:255 -1:255 28 0] [0x2 3 3 [4 0] [0 8]] (REQUEST)
r 7.013029384 _13_ RTR  --- 0 AODV 48 [0 ffffffff 3 800] ------- [3:255 -1:255 28 0] [0x2 3 3 [4 0] [0 8]] (REQUEST)
s 7.017946377 _10_ RTR  --- 0 AODV 48 [0 ffffffff 3 800] ------- [10:255 -1:255 27 0] [0x2 4 3 [4 0] [0 8]] (REQUEST)
r 7.019354709 _3_ RTR  --- 0 AODV 48 [0 ffffffff a 800] ------- [10:255 -1:255 27 0] [0x2 4 3 [4 0] [0 8]] (REQUEST)
r 7.019355056 _12_ RTR  --- 0 AODV 48 [0 ffffffff a 800] ------- [10:255 -1:255 27 0] [0x2 4 3 [4 0] [0 8]] (REQUEST)
s 7.024684042 _12_ RTR  --- 0 AODV 48 [0 ffffffff a 800] ------- [12:255 -1:255 26 0] [0x2 5 3 [4 0] [0 8]] (REQUEST)
r 7.025732721 _10_ RTR  --- 0 AODV 48 [0 ffffffff c 800] ------- [12:255 -1:255 26 0] [0x2 5 3 [4 0] [0 8]] (REQUEST)
r 7.025732727 _9_ RTR  --- 0 AODV 48 [0 ffffffff c 800] ------- [12:255 -1:255 26 0] [0x2 5 3 [4 0] [0 8]] (REQUEST)
s 7.026614729 _9_ RTR  --- 0 AODV 48 [0 ffffffff c 800] ------- [9:255 -1:255 25 0] [0x2 6 3 [4 0] [0 8]] (REQUEST)
r 7.027763296 _7_ RTR  --- 0 AODV 48 [0 ffffffff 9 800] ------- [9:255 -1:255 25 0] [0x2 6 3 [4 0] [0 8]] (REQUEST)
r 7.027763414 _12_ RTR  --- 0 AODV 48 [0 ffffffff 9 800] ------- [9:255 -1:255 25 0] [0x2 6 3 [4 0] [0 8]] (REQUEST)
s 7.035043713 _7_ RTR  --- 0 AODV 48 [0 ffffffff 9 800] ------- [7:255 -1:255 24 0] [0x2 7 3 [4 0] [0 8]] (REQUEST)
r 7.036592280 _9_ RTR  --- 0 AODV 48 [0 ffffffff 7 800] ------- [7:255 -1:255 24 0] [0x2 7 3 [4 0] [0 8]] (REQUEST)
s 10.000000000 _0_ AGT  --- 2 tcp 40 [0 0 0 0] ------- [0:0 4:0 32 0] [0 0] 0 0
r 10.000000000 _0_ RTR  --- 2 tcp 40 [0 0 0 0] ------- [0:0 4:0 32 0] [0 0] 0 0
s 12.500000000 _0_ RTR  --- 0 AODV 48 [0 0 0 0] ------- [0:255 -1:255 30 0] [0x2 1 4 [4 0] [0 10]] (REQUEST)
r 12.501008344 _5_ RTR  --- 0 AODV 48 [0 ffffffff 0 800] ------- [0:255 -1:255 30 0] [0x2 1 4 [4 0] [0 10]] (REQUEST)
r 12.501008555 _13_ RTR  --- 0 AODV 48 [0 ffffffff 0 800] ------- [0:255 -1:255 30 0] [0x2 1 4 [4 0] [0 10]] (REQUEST)
r 12.501008595 _8_ RTR  --- 0 AODV 48 [0 ffffffff 0 800] ------- [0:255 -1:255 30 0] [0x2 1 4 [4 0] [0 10]] (REQUEST)
s 12.504568930 _5_ RTR  --- 0 AODV 48 [0 ffffffff 0 800] ------- [5:255 -1:255 29 0] [0x2 2 4 [4 0] [0 10]] (REQUEST)
r 12.506057274 _0_ RTR  --- 0 AODV 48 [0 ffffffff 5 800] ------- [5:255 -1:255 29 0] [0x2 2 4 [4 0] [0 10]] (REQUEST)
r 12.506057424 _13_ RTR  --- 0 AODV 48 [0 ffffffff 5 800] ------- [5:255 -1:255 29 0] [0x2 2 4 [4 0] [0 10]] (REQUEST)
r 12.506057626 _8_ RTR  --- 0 AODV 48 [0 ffffffff 5 800] ------- [5:255 -1:255 29 0] [0x2 2 4 [4 0] [0 10]] (REQUEST)
s 12.506592641 _13_ RTR  --- 0 AODV 48 [0 ffffffff 0 800] ------- [13:255 -1:255 29 0] [0x2 2 4 [4 0] [0 10]] (REQUEST)
r 12.507841076 _3_ RTR  --- 0 AODV 48 [0 ffffffff d 800] ------- [13:255 -1:255 29 0] [0x2 2 4 [4 0] [0 10]] (REQUEST)
r 12.507841135 _5_ RTR  --- 0 AODV 48 [0 ffffffff d 800] ------- [13:255 -1:255 29 0] [0x2 2 4 [4 0] [0 10]] (REQUEST)
r 12.507841196 _0_ RTR  --- 0 AODV 48 [0 ffffffff d 800] ------- [13:255 -1:255 29 0] [0x2 2 4 [4 0] [0 10]] (REQUEST)
r 12.507841407 _10_ RTR  --- 0 AODV 48 [0 ffffffff d 800] ------- [13:255 -1:255 29 0] [0x2 2 4 [4 0] [0 10]] (REQUEST)
s 12.509164419 _8_ RTR  --- 0 AODV 48 [0 ffffffff 0 800] ------- [8:255 -1:255 29 0] [0x2 2 4 [4 0] [0 10]] (REQUEST)
r 12.510693014 _0_ RTR  --- 0 AODV 48 [0 ffffffff 8 800] ------- [8:255 -1:255 29 0] [0x2 2 4 [4 0] [0 10]] (REQUEST)
r 12.510693115 _5_ RTR  --- 0 AODV 48 [0 ffffffff 8 800] ------- [8:255 -1:255 29 0] [0x2 2 4 [4 0] [0 10]] (REQUEST)
s 12.511577445 _10_ RTR  --- 0 AODV 48 [0 ffffffff d 800] ------- [10:255 -1:255 28 0] [0x2 3 4 [4 0] [0 10]] (REQUEST)
r 12.512705802 _3_ RTR  --- 0 AODV 48 [0 ffffffff a 800] ------- [10:255 -1:255 28 0] [0x2 3 4 [4 0] [0 10]] (REQUEST)
r 12.512706074 _12_ RTR  --- 0 AODV 48 [0 ffffffff a 800] ------- [10:255 -1:255 28 0] [0x2 3 4 [4 0] [0 10]] (REQUEST)
r 12.512706211 _13_ RTR  --- 0 AODV 48 [0 ffffffff a 800] ------- [10:255 -1:255 28 0] [0x2 3 4 [4 0] [0 10]] (REQUEST)
s 12.513302306 _3_ RTR  --- 0 AODV 48 [0 ffffffff d 800] ------- [3:255 -1:255 28 0] [0x2 3 4 [4 0] [0 10]] (REQUEST)
r 12.514650663 _10_ RTR  --- 0 AODV 48 [0 ffffffff 3 800] ------- [3:255 -1:255 28 0] [0x2 3 4 [4 0] [0 10]] (REQUEST)
r 12.514650742 _13_ RTR  --- 0 AODV 48 [0 ffffffff 3 800] ------- [3:255 -1:255 28 0] [0x2 3 4 [4 0] [0 10]] (REQUEST)
r 12.514651119 _12_ RTR  --- 0 AODV 48 [0 ffffffff 3 800] ------- [3:255 -1:255 28 0] [0x2 3 4 [4 0] [0 10]] (REQUEST)
s 12.521825466 _12_ RTR  --- 0 AODV 48 [0 ffffffff a 800] ------- [12:255 -1:255 27 0] [0x2 4 4 [4 0] [0 10]] (REQUEST)
r 12.522934094 _10_ RTR  --- 0 AODV 48 [0 ffffffff c 800] ------- [12:255 -1:255 27 0] [0x2 4 4 [4 0] [0 10]] (REQUEST)
r 12.522934159 _9_ RTR  --- 0 AODV 48 [0 ffffffff c 800] ------- [12:255 -1:255 27 0] [0x2 4 4 [4 0] [0 10]] (REQUEST)
r 12.522934274 _7_ RTR  --- 0 AODV 48 [0 ffffffff c 800] ------- [12:255 -1:255 27 0] [0x2 4 4 [4 0] [0 10]] (REQUEST)
r 12.522934278 _3_ RTR  --- 0 AODV 48 [0 ffffffff c 800] ------- [12:255 -1:255 27 0] [0x2 4 4 [4 0] [0 10]] (REQUEST)
s 12.526151507 _9_ RTR  --- 0 AODV 48 [0 ffffffff c 800] ------- [9:255 -1:255 26 0] [0x2 5 4 [4 0] [0 10]] (REQUEST)
r 12.527459963 _7_ RTR  --- 0 AODV 48 [0 ffffffff 9 800] ------- [9:255 -1:255 26 0] [0x2 5 4 [4 0] [0 10]] (REQUEST)
r 12.527460201 _12_ RTR  --- 0 AODV 48 [0 ffffffff 9 800] ------- [9:255 -1:255 26 0] [0x2 5 4 [4 0] [0 10]] (REQUEST)
r 12.527460269 _4_ RTR  --- 0 AODV 48 [0 ffffffff 9 800] ------- [9:255 -1:255 26 0] [0x2 5 4 [4 0] [0 10]] (REQUEST)
s 12.527460269 _4_ RTR  --- 0 AODV 44 [0 0 0 0] ------- [4:255 0:255 30 9] [0x4 1 [4 4] 10.000000] (REPLY)
s 12.531746849 _7_ RTR  --- 0 AODV 48 [0 ffffffff c 800] ------- [7:255 -1:255 26 0] [0x2 5 4 [4 0] [0 10]] (REQUEST)
r 12.532428602 _9_ RTR  --- 0 AODV 44 [13a 9 4 800] ------- [4:255 0:255 30 9] [0x4 1 [4 4] 10.000000] (REPLY)
f 12.532428602 _9_ RTR  --- 0 AODV 44 [13a 9 4 800] ------- [4:255 0:255 29 12] [0x4 2 [4 4] 10.000000] (REPLY)
r 12.533711476 _9_ RTR  --- 0 AODV 48 [0 ffffffff 7 800] ------- [7:255 -1:255 26 0] [0x2 5 4 [4 0] [0 10]] (REQUEST)
r 12.533711828 _12_ RTR  --- 0 AODV 48 [0 ffffffff 7 800] ------- [7:255 -1:255 26 0] [0x2 5 4 [4 0] [0 10]] (REQUEST)
r 12.539049331 _12_ RTR  --- 0 AODV 44 [13a c 9 800] ------- [4:255 0:255 29 12] [0x4 2 [4 4] 10.000000] (REPLY)
f 12.539049331 _12_ RTR  --- 0 AODV 44 [13a c 9 800] ------- [4:255 0:255 28 10] [0x4 3 [4 4] 10.000000] (REPLY)
r 12.543680727 _10_ RTR  --- 0 AODV 44 [13a a c 800] ------- [4:255 0:255 28 10] [0x4 3 [4 4] 10.000000] (REPLY)
f 12.543680727 _10_ RTR  --- 0 AODV 44 [13a a c 800] ------- [4:255 0:255 27 13] [0x4 4 [4 4] 10.000000] (REPLY)
r 12.548473084 _13_ RTR  --- 0 AODV 44 [13a d a 800] ------- [4:255 0:255 27 13] [0x4 4 [4 4] 10.000000] (REPLY)
f 12.548473084 _13_ RTR  --- 0 AODV 44 [13a d a 800] ------- [4:255 0:255 26 0] [0x4 5 [4 4] 10.000000] (REPLY)
r 12.553963970 _0_ RTR  --- 0 AODV 44 [13a 0 d 800] ------- [4:255 0:255 26 0] [0x4 5 [4 4] 10.000000] (REPLY)
s 12.553963970 _0_ RTR  --- 0 tcp 40 [0 0 0 0] ------- [0:0 4:0 30 13] [0 0] 0 0
r 12.556029636 _13_ RTR  --- 0 tcp 40 [13a d 0 800] ------- [0:0 4:0 30 13] [0 0] 1 0
f 12.556029636 _13_ RTR  --- 0 tcp 40 [13a d 0 800] ------- [0:0 4:0 29 10] [0 0] 1 0
r 12.557955932 _10_ RTR  --- 0 tcp 40 [13a a d 800] ------- [0:0 4:0 29 10] [0 0] 2 0
f 12.557955932 _10_ RTR  --- 0 tcp 40 [13a a d 800] ------- [0:0 4:0 28 12] [0 0] 2 0
r 12.560321815 _12_ RTR  --- 0 tcp 40 [13a c a 800] ------- [0:0 4:0 28 12] [0 0] 3 0
f 12.560321815 _12_ RTR  --- 0 tcp 40 [13a c a 800] ------- [0:0 4:0 27 9] [0 0] 3 0
r 12.562727896 _9_ RTR  --- 0 tcp 40 [13a 9 c 800] ------- [0:0 4:0 27 9] [0 0] 4 0
f 12.562727896 _9_ RTR  --- 0 tcp 40 [13a 9 c 800] ------- [0:0 4:0 26 4] [0 0] 4 0
s 12.563963970 _0_ RTR  --- 1 tcp 40 [0 0 0 0] ------- [0:0 4:0 30 13] [0 0] 0 0
r 12.564774178 _4_ AGT  --- 0 tcp 40 [13a 4 9 800] ------- [0:0 4:0 26 4] [0 0] 5 0
s 12.564774178 _4_ AGT  --- 3 ack 40 [0 0 0 0] ------- [4:0 0:0 32 0] [0 0] 0 0
r 12.564774178 _4_ RTR  --- 3 ack 40 [0 0 0 0] ------- [4:0 0:0 32 0] [0 0] 0 0
s 12.564774178 _4_ RTR  --- 3 ack 40 [0 0 0 0] ------- [4:0 0:0 30 9] [0 0] 0 0
r 12.566840460 _9_ RTR  --- 3 ack 40 [13a 9 4 800] ------- [4:0 0:0 30 9] [0 0] 1 0
f 12.566840460 _9_ RTR  --- 3 ack 40 [13a 9 4 800] ------- [4:0 0:0 29 12] [0 0] 1 0
r 12.568966541 _12_ RTR  --- 3 ack 40 [13a c 9 800] ------- [4:0 0:0 29 12] [0 0] 2 0
f 12.568966541 _12_ RTR  --- 3 ack 40 [13a c 9 800] ------- [4:0 0:0 28 10] [0 0] 2 0
r 12.570852424 _10_ RTR  --- 3 ack 40 [13a a c 800] ------- [4:0 0:0 28 10] [0 0] 3 0
f 12.570852424 _10_ RTR  --- 3 ack 40 [13a a c 800] ------- [4:0 0:0 27 13] [0 0] 3 0
r 12.572698719 _13_ RTR  --- 3 ack 40 [13a d a 800] ------- [4:0 0:0 27 13] [0 0] 4 0
f 12.572698719 _13_ RTR  --- 3 ack 40 [13a d a 800] ------- [4:0 0:0 26 0] [0 0] 4 0
s 12.573963970 _0_ RTR  --- 2 tcp 40 [0 0 0 0] ------- [0:0 4:0 30 13] [0 0] 0 0
r 12.574714891 _13_ RTR  --- 1 tcp 40 [13a d 0 800] ------- [0:0 4:0 30 13] [0 0] 1 0
f 12.574714891 _13_ RTR  --- 1 tcp 40 [13a d 0 800] ------- [0:0 4:0 29 10] [0 0] 1 0
r 12.576740557 _0_ AGT  --- 3 ack 40 [13a 0 d 800] ------- [4:0 0:0 26 0] [0 0] 5 0
s 12.576740557 _0_ AGT  --- 4 tcp 1540 [0 0 0 0] ------- [0:0 4:0 32 0] [1 0] 0 0
r 12.576740557 _0_ RTR  --- 4 tcp 1540 [0 0 0 0] ------- [0:0 4:0 32 0] [1 0] 0 0
s 12.576740557 _0_ RTR  --- 4 tcp 1540 [0 0 0 0] ------- [0:0 4:0 30 13] [1 0] 0 0
r 12.578567406 _10_ RTR  --- 1 tcp 40 [13a a d 800] ------- [0:0 4:0 29 10] [0 0] 2 0
f 12.578567406 _10_ RTR  --- 1 tcp 40 [13a a d 800] ------- [0:0 4:0 28 12] [0 0] 2 0
r 12.580573289 _12_ RTR  --- 1 tcp 40 [13a c a 800] ------- [0:0 4:0 28 12] [0 0] 3 0
f 12.580573289 _12_ RTR  --- 1 tcp 40 [13a c a 800] ------- [0:0 4:0 27 9] [0 0] 3 0
r 12.582759370 _9_ RTR  --- 1 tcp 40 [13a 9 c 800] ------- [0:0 4:0 27 9] [0 0] 4 0
f 12.582759370 _9_ RTR  --- 1 tcp 40 [13a 9 c 800] ------- [0:0 4:0 26 4] [0 0] 4 0
r 12.584990829 _13_ RTR  --- 2 tcp 40 [13a d 0 800] ------- [0:0 4:0 30 13] [0 0] 1 0
f 12.584990829 _13_ RTR  --- 2 tcp 40 [13a d 0 800] ------- [0:0 4:0 29 10] [0 0] 1 0
r 12.586957122 _10_ RTR  --- 2 tcp 40 [13a a d 800] ------- [0:0 4:0 29 10] [0 0] 2 0
f 12.586957122 _10_ RTR  --- 2 tcp 40 [13a a d 800] ------- [0:0 4:0 28 12] [0 0] 2 0
r 12.589248473 _4_ AGT  --- 1 tcp 40 [13a 4 9 800] ------- [0:0 4:0 26 4] [0 0] 5 0
s 12.589248473 _4_ AGT  --- 5 ack 40 [0 0 0 0] ------- [4:0 0:0 32 0] [0 0] 0 0
r 12.589248473 _4_ RTR  --- 5 ack 40 [0 0 0 0] ------- [4:0 0:0 32 0] [0 0] 0 0
s 12.589248473 _4_ RTR  --- 5 ack 40 [0 0 0 0] ------- [4:0 0:0 30 9] [0 0] 0 0
r 12.591519659 _12_ RTR  --- 2 tcp 40 [13a c a 800] ------- [0:0 4:0 28 12] [0 0] 3 0
f 12.591519659 _12_ RTR  --- 2 tcp 40 [13a c a 800] ------- [0:0 4:0 27 9] [0 0] 3 0
r 12.593345740 _9_ RTR  --- 2 tcp 40 [13a 9 c 800] ------- [0:0 4:0 27 9] [0 0] 4 0
f 12.593345740 _9_ RTR  --- 2 tcp 40 [13a 9 c 800] ------- [0:0 4:0 26 4] [0 0] 4 0
r 12.595262604 _9_ RTR  --- 5 ack 40 [13a 9 4 800] ------- [4:0 0:0 30 9] [0 0] 1 0
f 12.595262604 _9_ RTR  --- 5 ack 40 [13a 9 4 800] ------- [4:0 0:0 29 12] [0 0] 1 0
r 12.597568883 _4_ AGT  --- 2 tcp 40 [13a 4 9 800] ------- [0:0 4:0 26 4] [0 0] 5 0
s 12.597568883 _4_ AGT  --- 6 ack 40 [0 0 0 0] ------- [4:0 0:0 32 0] [0 0] 0 0
r 12.597568883 _4_ RTR  --- 6 ack 40 [0 0 0 0] ------- [4:0 0:0 32 0] [0 0] 0 0
s 12.597568883 _4_ RTR  --- 6 ack 40 [0 0 0 0] ------- [4:0 0:0 30 9] [0 0] 0 0
r 12.599715162 _9_ RTR  --- 6 ack 40 [13a 9 4 800] ------- [4:0 0:0 30 9] [0 0] 1 0
f 12.599715162 _9_ RTR  --- 6 ack 40 [13a 9 4 800] ------- [4:0 0:0 29 12] [0 0] 1 0
r 12.601721244 _12_ RTR  --- 5 ack 40 [13a c 9 800] ------- [4:0 0:0 29 12] [0 0] 2 0
f 12.601721244 _12_ RTR  --- 5 ack 40 [13a c 9 800] ------- [4:0 0:0 28 10] [0 0] 2 0
r 12.616032694 _13_ RTR  --- 4 tcp 1540 [13a d 0 800] ------- [0:0 4:0 30 13] [1 0] 1 0
f 12.616032694 _13_ RTR  --- 4 tcp 1540 [13a d 0 800] ------- [0:0 4:0 29 10] [1 0] 1 0
r 12.629938986 _10_ RTR  --- 4 tcp 1540 [13a a d 800] ------- [0:0 4:0 29 10] [1 0] 2 0
f 12.629938986 _10_ RTR  --- 4 tcp 1540 [13a a d 800] ------- [0:0 4:0 28 12] [1 0] 2 0
r 12.643764867 _12_ RTR  --- 4 tcp 1540 [13a c a 800] ------- [0:0 4:0 28 12] [1 0] 3 0
f 12.643764867 _12_ RTR  --- 4 tcp 1540 [13a c a 800] ------- [0:0 4:0 27 9] [1 0] 3 0
r 12.645630748 _10_ RTR  --- 5 ack 40 [13a a c 800] ------- [4:0 0:0 28 10] [0 0] 3 0
f 12.645630748 _10_ RTR  --- 5 ack 40 [13a a c 800] ------- [4:0 0:0 27 13] [0 0] 3 0
r 12.647757038 _13_ RTR  --- 5 ack 40 [13a d a 800] ------- [4:0 0:0 27 13] [0 0] 4 0
f 12.647757038 _13_ RTR  --- 5 ack 40 [13a d a 800] ------- [4:0 0:0 26 0] [0 0] 4 0
r 12.649902706 _0_ AGT  --- 5 ack 40 [13a 0 d 800] ------- [4:0 0:0 26 0] [0 0] 5 0
s 12.649902706 _0_ AGT  --- 7 tcp 1540 [0 0 0 0] ------- [0:0 4:0 32 0] [2 0] 0 0
r 12.649902706 _0_ RTR  --- 7 tcp 1540 [0 0 0 0] ------- [0:0 4:0 32 0] [2 0] 0 0
s 12.649902706 _0_ RTR  --- 7 tcp 1540 [0 0 0 0] ------- [0:0 4:0 30 13] [2 0] 0 0
r 12.663988373 _13_ RTR  --- 7 tcp 1540 [13a d 0 800] ------- [0:0 4:0 30 13] [2 0] 1 0
f 12.663988373 _13_ RTR  --- 7 tcp 1540 [13a d 0 800] ------- [0:0 4:0 29 10] [2 0] 1 0
r 12.677854662 _10_ RTR  --- 7 tcp 1540 [13a a d 800] ------- [0:0 4:0 29 10] [2 0] 2 0
f 12.677854662 _10_ RTR  --- 7 tcp 1540 [13a a d 800] ------- [0:0 4:0 28 12] [2 0] 2 0
r 12.691800542 _12_ RTR  --- 7 tcp 1540 [13a c a 800] ------- [0:0 4:0 28 12] [2 0] 3 0
f 12.691800542 _12_ RTR  --- 7 tcp 1540 [13a c a 800] ------- [0:0 4:0 27 9] [2 0] 3 0
r 12.705666623 _9_ RTR  --- 4 tcp 1540 [13a 9 c 800] ------- [0:0 4:0 27 9] [1 0] 4 0
f 12.705666623 _9_ RTR  --- 4 tcp 1540 [13a 9 c 800] ------- [0:0 4:0 26 4] [1 0] 4 0
r 12.719493399 _9_ RTR  --- 7 tcp 1540 [13a 9 c 800] ------- [0:0 4:0 27 9] [2 0] 4 0
f 12.719493399 _9_ RTR  --- 7 tcp 1540 [13a 9 c 800] ------- [0:0 4:0 26 4] [2 0] 4 0
r 12.721339481 _12_ RTR  --- 6 ack 40 [13a c 9 800] ------- [4:0 0:0 29 12] [0 0] 2 0
f 12.721339481 _12_ RTR  --- 6 ack 40 [13a c 9 800] ------- [4:0 0:0 28 10] [0 0] 2 0
r 12.723225360 _10_ RTR  --- 6 ack 40 [13a a c 800] ------- [4:0 0:0 28 10] [0 0] 3 0
f 12.723225360 _10_ RTR  --- 6 ack 40 [13a a c 800] ------- [4:0 0:0 27 13] [0 0] 3 0
r 12.725511645 _13_ RTR  --- 6 ack 40 [13a d a 800] ------- [4:0 0:0 27 13] [0 0] 4 0
f 12.725511645 _13_ RTR  --- 6 ack 40 [13a d a 800] ------- [4:0 0:0 26 0] [0 0] 4 0
r 12.727497314 _0_ AGT  --- 6 ack 40 [13a 0 d 800] ------- [4:0 0:0 26 0] [0 0] 5 0
s 12.727497314 _0_ AGT  --- 8 tcp 1540 [0 0 0 0] ------- [0:0 4:0 32 0] [3 0] 0 0
r 12.727497314 _0_ RTR  --- 8 tcp 1540 [0 0 0 0] ------- [0:0 4:0 32 0] [3 0] 0 0
s 12.727497314 _0_ RTR  --- 8 tcp 1540 [0 0 0 0] ------- [0:0 4:0 30 13] [3 0] 0 0
r 12.741502983 _13_ RTR  --- 8 tcp 1540 [13a d 0 800] ------- [0:0 4:0 30 13] [3 0] 1 0
f 12.741502983 _13_ RTR  --- 8 tcp 1540 [13a d 0 800] ------- [0:0 4:0 29 10] [3 0] 1 0
r 12.755549266 _10_ RTR  --- 8 tcp 1540 [13a a d 800] ------- [0:0 4:0 29 10] [3 0] 2 0
f 12.755549266 _10_ RTR  --- 8 tcp 1540 [13a a d 800] ------- [0:0 4:0 28 12] [3 0] 2 0
r 12.769435144 _12_ RTR  --- 8 tcp 1540 [13a c a 800] ------- [0:0 4:0 28 12] [3 0] 3 0
f 12.769435144 _12_ RTR  --- 8 tcp 1540 [13a c a 800] ------- [0:0 4:0 27 9] [3 0] 3 0
r 12.783361226 _9_ RTR  --- 8 tcp 1540 [13a 9 c 800] ------- [0:0 4:0 27 9] [3 0] 4 0
f 12.783361226 _9_ RTR  --- 8 tcp 1540 [13a 9 c 800] ------- [0:0 4:0 26 4] [3 0] 4 0
r 12.797567488 _4_ AGT  --- 4 tcp 1540 [13a 4 9 800] ------- [0:0 4:0 26 4] [1 0] 5 0
s 12.797567488 _4_ AGT  --- 9 ack 40 [0 0 0 0] ------- [4:0 0:0 32 0] [1 0] 0 0
r 12.797567488 _4_ RTR  --- 9 ack 40 [0 0 0 0] ------- [4:0 0:0 32 0] [1 0] 0 0
s 12.797567488 _4_ RTR  --- 9 ack 40 [0 0 0 0] ------- [4:0 0:0 30 9] [1 0] 0 0
r 12.811714501 _4_ AGT  --- 7 tcp 1540 [13a 4 9 800] ------- [0:0 4:0 26 4] [2 0] 5 0
s 12.811714501 _4_ AGT  --- 10 ack 40 [0 0 0 0] ------- [4:0 0:0 32 0] [2 0] 0 0
r 12.811714501 _4_ RTR  --- 10 ack 40 [0 0 0 0] ------- [4:0 0:0 32 0] [2 0] 0 0
s 12.811714501 _4_ RTR  --- 10 ack 40 [0 0 0 0] ------- [4:0 0:0 30 9] [2 0] 0 0
r 12.813740759 _9_ RTR  --- 9 ack 40 [13a 9 4 800] ------- [4:0 0:0 30 9] [1 0] 1 0
f 12.813740759 _9_ RTR  --- 9 ack 40 [13a 9 4 800] ------- [4:0 0:0 29 12] [1 0] 1 0
r 12.815607770 _9_ RTR  --- 10 ack 40 [13a 9 4 800] ------- [4:0 0:0 30 9] [2 0] 1 0
f 12.815607770 _9_ RTR  --- 10 ack 40 [13a 9 4 800] ------- [4:0 0:0 29 12] [2 0] 1 0
r 12.829494028 _4_ AGT  --- 8 tcp 1540 [13a 4 9 800] ------- [0:0 4:0 26 4] [3 0] 5 0
s 12.829494028 _4_ AGT  --- 11 ack 40 [0 0 0 0] ------- [4:0 0:0 32 0] [3 0] 0 0
r 12.829494028 _4_ RTR  --- 11 ack 40 [0 0 0 0] ------- [4:0 0:0 32 0] [3 0] 0 0
s 12.829494028 _4_ RTR  --- 11 ack 40 [0 0 0 0] ------- [4:0 0:0 30 9] [3 0] 0 0
r 12.831540285 _9_ RTR  --- 11 ack 40 [13a 9 4 800] ------- [4:0 0:0 30 9] [3 0] 1 0
f 12.831540285 _9_ RTR  --- 11 ack 40 [13a 9 4 800] ------- [4:0 0:0 29 12] [3 0] 1 0
r 12.833526367 _12_ RTR  --- 9 ack 40 [13a c 9 800] ------- [4:0 0:0 29 12] [1 0] 2 0
f 12.833526367 _12_ RTR  --- 9 ack 40 [13a c 9 800] ------- [4:0 0:0 28 10] [1 0] 2 0
r 12.835512243 _10_ RTR  --- 9 ack 40 [13a a c 800] ------- [4:0 0:0 28 10] [1 0] 3 0
f 12.835512243 _10_ RTR  --- 9 ack 40 [13a a c 800] ------- [4:0 0:0 27 13] [1 0] 3 0
r 12.837618521 _13_ RTR  --- 9 ack 40 [13a d a 800] ------- [4:0 0:0 27 13] [1 0] 4 0
f 12.837618521 _13_ RTR  --- 9 ack 40 [13a d a 800] ------- [4:0 0:0 26 0] [1 0] 4 0
r 12.839544192 _0_ AGT  --- 9 ack 40 [13a 0 d 800] ------- [4:0 0:0 26 0] [1 0] 5 0
r 12.841916064 _12_ RTR  --- 10 ack 40 [13a c 9 800] ------- [4:0 0:0 29 12] [2 0] 2 0
f 12.841916064 _12_ RTR  --- 10 ack 40 [13a c 9 800] ------- [4:0 0:0 28 10] [2 0] 2 0
r 12.844002841 _12_ RTR  --- 11 ack 40 [13a c 9 800] ------- [4:0 0:0 29 12] [3 0] 2 0
f 12.844002841 _12_ RTR  --- 11 ack 40 [13a c 9 800] ------- [4:0 0:0 28 10] [3 0] 2 0
r 12.846028716 _10_ RTR  --- 10 ack 40 [13a a c 800] ------- [4:0 0:0 28 10] [2 0] 3 0
f 12.846028716 _10_ RTR  --- 10 ack 40 [13a a c 800] ------- [4:0 0:0 27 13] [2 0] 3 0
r 12.848095217 _10_ RTR  --- 11 ack 40 [13a a c 800] ------- [4:0 0:0 28 10] [3 0] 3 0
f 12.848095217 _10_ RTR  --- 11 ack 40 [13a a c 800] ------- [4:0 0:0 27 13] [3 0] 3 0
r 12.850101494 _13_ RTR  --- 10 ack 40 [13a d a 800] ------- [4:0 0:0 27 13] [2 0] 4 0
f 12.850101494 _13_ RTR  --- 10 ack 40 [13a d a 800] ------- [4:0 0:0 26 0] [2 0] 4 0
r 12.852028530 _13_ RTR  --- 11 ack 40 [13a d a 800] ------- [4:0 0:0 27 13] [3 0] 4 0
f 12.852028530 _13_ RTR  --- 11 ack 40 [13a d a 800] ------- [4:0 0:0 26 0] [3 0] 4 0
r 12.854154201 _0_ AGT  --- 10 ack 40 [13a 0 d 800] ------- [4:0 0:0 26 0] [2 0] 5 0
s 12.854154201 _0_ AGT  --- 12 tcp 1540 [0 0 0 0] ------- [0:0 4:0 32 0] [4 0] 0 0
r 12.854154201 _0_ RTR  --- 12 tcp 1540 [0 0 0 0] ------- [0:0 4:0 32 0] [4 0] 0 0
s 12.854154201 _0_ RTR  --- 12 tcp 1540 [0 0 0 0] ------- [0:0 4:0 30 13] [4 0] 0 0
r 12.856360430 _0_ AGT  --- 11 ack 40 [13a 0 d 800] ------- [4:0 0:0 26 0] [3 0] 5 0
s 12.856360430 _0_ AGT  --- 13 tcp 1540 [0 0 0 0] ------- [0:0 4:0 32 0] [5 0] 0 0
r 12.856360430 _0_ RTR  --- 13 tcp 1540 [0 0 0 0] ------- [0:0 4:0 32 0] [5 0] 0 0
s 12.856360430 _0_ RTR  --- 13 tcp 1540 [0 0 0 0] ------- [0:0 4:0 30 13] [5 0] 0 0
r 12.870326102 _13_ RTR  --- 12 tcp 1540 [13a d 0 800] ------- [0:0 4:0 30 13] [4 0] 1 0
f 12.870326102 _13_ RTR  --- 12 tcp 1540 [13a d 0 800] ------- [0:0 4:0 29 10] [4 0] 1 0
r 12.884492377 _10_ RTR  --- 12 tcp 1540 [13a a d 800] ------- [0:0 4:0 29 10] [4 0] 2 0
f 12.884492377 _10_ RTR  --- 12 tcp 1540 [13a a d 800] ------- [0:0 4:0 28 12] [4 0] 2 0
r 12.898898252 _12_ RTR  --- 12 tcp 1540 [13a c a 800] ------- [0:0 4:0 28 12] [4 0] 3 0
f 12.898898252 _12_ RTR  --- 12 tcp 1540 [13a c a 800] ------- [0:0 4:0 27 9] [4 0] 3 0
r 12.912744335 _9_ RTR  --- 12 tcp 1540 [13a 9 c 800] ------- [0:0 4:0 27 9] [4 0] 4 0
f 12.912744335 _9_ RTR  --- 12 tcp 1540 [13a 9 c 800] ------- [0:0 4:0 26 4] [4 0] 4 0
r 12.926790583 _4_ AGT  --- 12 tcp 1540 [13a 4 9 800] ------- [0:0 4:0 26 4] [4 0] 5 0
s 12.926790583 _4_ AGT  --- 14 ack 40 [0 0 0 0] ------- [4:0 0:0 32 0] [4 0] 0 0
r 12.926790583 _4_ RTR  --- 14 ack 40 [0 0 0 0] ------- [4:0 0:0 32 0] [4 0] 0 0
s 12.926790583 _4_ RTR  --- 14 ack 40 [0 0 0 0] ------- [4:0 0:0 30 9] [4 0] 0 0
r 12.941041616 _13_ RTR  --- 13 tcp 1540 [13a d 0 800] ------- [0:0 4:0 30 13] [5 0] 1 0
f 12.941041616 _13_ RTR  --- 13 tcp 1540 [13a d 0 800] ------- [0:0 4:0 29 10] [5 0] 1 0
r 12.955007888 _10_ RTR  --- 13 tcp 1540 [13a a d 800] ------- [0:0 4:0 29 10] [5 0] 2 0
f 12.955007888 _10_ RTR  --- 13 tcp 1540 [13a a d 800] ------- [0:0 4:0 28 12] [5 0] 2 0
r 12.969213760 _12_ RTR  --- 13 tcp 1540 [13a c a 800] ------- [0:0 4:0 28 12] [5 0] 3 0
f 12.969213760 _12_ RTR  --- 13 tcp 1540 [13a c a 800] ------- [0:0 4:0 27 9] [5 0] 3 0