s 30.103265457 _0_ AGT  --- 4796 tcp 41 [0 0 0 0] ------- [0:0 9:0 32 0] [1 0] 0 0
r 30.103265457 _0_ RTR  --- 4796 tcp 41 [0 0 0 0] ------- [0:0 9:0 32 0] [1 0] 0 0
s 30.103265457 _0_ RTR  --- 4796 tcp 41 [0 0 0 0] ------- [0:0 9:0 30 19] [1 0] 0 0
r 30.105119944 _19_ RTR  --- 4796 tcp 41 [13a 13 0 800] ------- [0:0 9:0 30 19] [1 0] 1 0
f 30.105119944 _19_ RTR  --- 4796 tcp 41 [13a 13 0 800] ------- [0:0 9:0 29 11] [1 0] 1 0
r 30.106170337 _18_ RTR  --- 0 AODV 48 [0 ffffffff 7 800] ------- [7:255 -1:255 23 0] [0x2 8 5 [9 0] [0 12]] (REQUEST)
r 30.106170526 _5_ RTR  --- 0 AODV 48 [0 ffffffff 7 800] ------- [7:255 -1:255 23 0] [0x2 8 5 [9 0] [0 12]] (REQUEST)
r 30.106170571 _3_ RTR  --- 0 AODV 48 [0 ffffffff 7 800] ------- [7:255 -1:255 23 0] [0x2 8 5 [9 0] [0 12]] (REQUEST)
r 30.107194175 _11_ RTR  --- 4796 tcp 41 [13a b 13 800] ------- [0:0 9:0 29 11] [1 0] 2 0
f 30.107194175 _11_ RTR  --- 4796 tcp 41 [13a b 13 800] ------- [0:0 9:0 28 9] [1 0] 2 0
D 30.108425571 _3_ RTR  CBK 4788 ack 40 [13a 8 3 800] ------- [7:0 2:0 29 8] [2288 0] 1 0
D 30.108425571 _3_ RTR  CBK 4790 ack 40 [13a 8 3 800] ------- [7:0 2:0 29 8] [2289 0] 1 0
s 30.108425571 _3_ RTR  --- 0 AODV 40 [0 0 0 0] ------- [3:255 -1:255 1 0] [0x8 2 [2 6] 0.000000] (ERROR)
r 30.109307910 _9_ AGT  --- 4796 tcp 41 [13a 9 b 800] ------- [0:0 9:0 28 9] [1 0] 3 0
s 30.109307910 _9_ AGT  --- 4797 ack 40 [0 0 0 0] ------- [9:0 0:0 32 0] [1 0] 0 0
r 30.109307910 _9_ RTR  --- 4797 ack 40 [0 0 0 0] ------- [9:0 0:0 32 0] [1 0] 0 0
s 30.109307910 _9_ RTR  --- 4797 ack 40 [0 0 0 0] ------- [9:0 0:0 30 11] [1 0] 0 0
r 30.109488668 _5_ RTR  --- 0 AODV 48 [0 ffffffff 3 800] ------- [3:255 -1:255 24 0] [0x2 7 5 [5 0] [4 12]] (REQUEST)
r 30.109488949 _7_ RTR  --- 0 AODV 48 [0 ffffffff 3 800] ------- [3:255 -1:255 24 0] [0x2 7 5 [5 0] [4 12]] (REQUEST)
r 30.109488977 _18_ RTR  --- 0 AODV 48 [0 ffffffff 3 800] ------- [3:255 -1:255 24 0] [0x2 7 5 [5 0] [4 12]] (REQUEST)
r 30.110582668 _5_ RTR  --- 0 AODV 40 [0 ffffffff 3 800] ------- [3:255 -1:255 1 0] [0x8 2 [2 6] 0.000000] (ERROR)
r 30.110582949 _7_ RTR  --- 0 AODV 40 [0 ffffffff 3 800] ------- [3:255 -1:255 1 0] [0x8 2 [2 6] 0.000000] (ERROR)
r 30.110582977 _18_ RTR  --- 0 AODV 40 [0 ffffffff 3 800] ------- [3:255 -1:255 1 0] [0x8 2 [2 6] 0.000000] (ERROR)
r 30.110583142 _14_ RTR  --- 0 AODV 40 [0 ffffffff 3 800] ------- [3:255 -1:255 1 0] [0x8 2 [2 6] 0.000000] (ERROR)
r 30.111213644 _11_ RTR  --- 4797 ack 40 [13a b 9 800] ------- [9:0 0:0 30 11] [1 0] 1 0
f 30.111213644 _11_ RTR  --- 4797 ack 40 [13a b 9 800] ------- [9:0 0:0 29 19] [1 0] 1 0
r 30.111700668 _5_ RTR  --- 0 AODV 48 [0 ffffffff 3 800] ------- [3:255 -1:255 24 0] [0x2 7 5 [9 0] [0 12]] (REQUEST)
r 30.111700949 _7_ RTR  --- 0 AODV 48 [0 ffffffff 3 800] ------- [3:255 -1:255 24 0] [0x2 7 5 [9 0] [0 12]] (REQUEST)
r 30.111700977 _18_ RTR  --- 0 AODV 48 [0 ffffffff 3 800] ------- [3:255 -1:255 24 0] [0x2 7 5 [9 0] [0 12]] (REQUEST)
r 30.111701142 _14_ RTR  --- 0 AODV 48 [0 ffffffff 3 800] ------- [3:255 -1:255 24 0] [0x2 7 5 [9 0] [0 12]] (REQUEST)
r 30.111701324 _2_ RTR  --- 0 AODV 48 [0 ffffffff 3 800] ------- [3:255 -1:255 24 0] [0x2 7 5 [9 0] [0 12]] (REQUEST)
r 30.113138668 _5_ RTR  --- 0 AODV 48 [0 ffffffff 3 800] ------- [3:255 -1:255 28 0] [0x2 3 5 [8 0] [1 14]] (REQUEST)
r 30.113138949 _7_ RTR  --- 0 AODV 48 [0 ffffffff 3 800] ------- [3:255 -1:255 28 0] [0x2 3 5 [8 0] [1 14]] (REQUEST)
r 30.113138977 _18_ RTR  --- 0 AODV 48 [0 ffffffff 3 800] ------- [3:255 -1:255 28 0] [0x2 3 5 [8 0] [1 14]] (REQUEST)
r 30.113139142 _14_ RTR  --- 0 AODV 48 [0 ffffffff 3 800] ------- [3:255 -1:255 28 0] [0x2 3 5 [8 0] [1 14]] (REQUEST)
r 30.113139876 _19_ RTR  --- 4797 ack 40 [13a 13 b 800] ------- [9:0 0:0 29 19] [1 0] 2 0
f 30.113139876 _19_ RTR  --- 4797 ack 40 [13a 13 b 800] ------- [9:0 0:0 28 0] [1 0] 2 0
s 30.114672961 _18_ RTR  --- 0 AODV 48 [0 ffffffff 3 800] ------- [18:255 -1:255 23 0] [0x2 8 5 [5 0] [4 12]] (REQUEST)
r 30.114742618 _14_ RTR  --- 0 AODV 44 [13a e 5 800] ------- [5:255 4:255 30 14] [0x4 1 [5 4] 10.000000] (REPLY)
f 30.114742618 _14_ RTR  --- 0 AODV 44 [13a e 5 800] ------- [5:255 4:255 29 15] [0x4 2 [5 4] 10.000000] (REPLY)
r 30.116976320 _7_ AGT  --- 4773 tcp 41 [13a 7 3 800] ------- [2:0 7:0 28 7] [2290 0] 3 0
s 30.116976320 _7_ AGT  --- 4798 ack 40 [0 0 0 0] ------- [7:0 2:0 32 0] [2290 0] 0 0
r 30.116976320 _7_ RTR  --- 4798 ack 40 [0 0 0 0] ------- [7:0 2:0 32 0] [2290 0] 0 0
s 30.116976320 _7_ RTR  --- 0 AODV 48 [0 0 0 0] ------- [7:255 -1:255 5 0] [0x2 1 2 [2 9] [7 12]] (REQUEST)
r 30.117066362 _0_ AGT  --- 4797 ack 40 [13a 0 13 800] ------- [9:0 0:0 28 0] [1 0] 3 0
s 30.117066362 _0_ AGT  --- 4799 tcp 41 [0 0 0 0] ------- [0:0 9:0 32 0] [2 0] 0 0
r 30.117066362 _0_ RTR  --- 4799 tcp 41 [0 0 0 0] ------- [0:0 9:0 32 0] [2 0] 0 0
s 30.117066362 _0_ AGT  --- 4800 tcp 41 [0 0 0 0] ------- [0:0 9:0 32 0] [3 0] 0 0
r 30.117066362 _0_ RTR  --- 4800 tcp 41 [0 0 0 0] ------- [0:0 9:0 32 0] [3 0] 0 0
s 30.117066362 _0_ RTR  --- 4799 tcp 41 [0 0 0 0] ------- [0:0 9:0 30 19] [2 0] 0 0
s 30.117066362 _0_ RTR  --- 4800 tcp 41 [0 0 0 0] ------- [0:0 9:0 30 19] [3 0] 0 0
s 30.118154947 _7_ RTR  --- 0 AODV 48 [0 ffffffff 3 800] ------- [7:255 -1:255 23 0] [0x2 8 5 [5 0] [4 12]] (REQUEST)
r 30.118849829 _7_ AGT  --- 4777 tcp 41 [13a 7 3 800] ------- [2:0 7:0 28 7] [2291 0] 3 0
s 30.118849829 _7_ AGT  --- 4801 ack 40 [0 0 0 0] ------- [7:0 2:0 32 0] [2291 0] 0 0
r 30.118849829 _7_ RTR  --- 4801 ack 40 [0 0 0 0] ------- [7:0 2:0 32 0] [2291 0] 0 0
r 30.119280848 _19_ RTR  --- 4799 tcp 41 [13a 13 0 800] ------- [0:0 9:0 30 19] [2 0] 1 0
f 30.119280848 _19_ RTR  --- 4799 tcp 41 [13a 13 0 800] ------- [0:0 9:0 29 11] [2 0] 1 0
r 30.120202115 _7_ RTR  --- 0 AODV 48 [0 ffffffff 12 800] ------- [18:255 -1:255 23 0] [0x2 8 5 [5 0] [4 12]] (REQUEST)
r 30.120202366 _5_ RTR  --- 0 AODV 48 [0 ffffffff 12 800] ------- [18:255 -1:255 23 0] [0x2 8 5 [5 0] [4 12]] (REQUEST)
r 30.120202378 _3_ RTR  --- 0 AODV 48 [0 ffffffff 12 800] ------- [18:255 -1:255 23 0] [0x2 8 5 [5 0] [4 12]] (REQUEST)
r 30.121256163 _19_ RTR  --- 4800 tcp 41 [13a 13 0 800] ------- [0:0 9:0 30 19] [3 0] 1 0
f 30.121256163 _19_ RTR  --- 4800 tcp 41 [13a 13 0 800] ------- [0:0 9:0 29 11] [3 0] 1 0
r 30.121861510 _7_ AGT  --- 4778 tcp 41 [13a 7 3 800] ------- [2:0 7:0 28 7] [2292 0] 3 0
s 30.121861510 _7_ AGT  --- 4802 ack 40 [0 0 0 0] ------- [7:0 2:0 32 0] [2292 0] 0 0
r 30.121861510 _7_ RTR  --- 4802 ack 40 [0 0 0 0] ------- [7:0 2:0 32 0] [2292 0] 0 0
r 30.123150396 _11_ RTR  --- 4799 tcp 41 [13a b 13 800] ------- [0:0 9:0 29 11] [2 0] 2 0
f 30.123150396 _11_ RTR  --- 4799 tcp 41 [13a b 13 800] ------- [0:0 9:0 28 9] [2 0] 2 0
r 30.123193652 _18_ RTR  --- 0 AODV 48 [0 ffffffff 7 800] ------- [7:255 -1:255 5 0] [0x2 1 2 [2 9] [7 12]] (REQUEST)
r 30.123193842 _5_ RTR  --- 0 AODV 48 [0 ffffffff 7 800] ------- [7:255 -1:255 5 0] [0x2 1 2 [2 9] [7 12]] (REQUEST)
r 30.123193887 _3_ RTR  --- 0 AODV 48 [0 ffffffff 7 800] ------- [7:255 -1:255 5 0] [0x2 1 2 [2 9] [7 12]] (REQUEST)
r 30.124953019 _7_ AGT  --- 4779 tcp 41 [13a 7 3 800] ------- [2:0 7:0 28 7] [2293 0] 3 0
s 30.124953019 _7_ AGT  --- 4803 ack 40 [0 0 0 0] ------- [7:0 2:0 32 0] [2293 0] 0 0
r 30.124953019 _7_ RTR  --- 4803 ack 40 [0 0 0 0] ------- [7:0 2:0 32 0] [2293 0] 0 0
r 30.126291619 _9_ AGT  --- 4799 tcp 41 [13a 9 b 800] ------- [0:0 9:0 28 9] [2 0] 3 0
s 30.126291619 _9_ AGT  --- 4804 ack 40 [0 0 0 0] ------- [9:0 0:0 32 0] [2 0] 0 0
r 30.126291619 _9_ RTR  --- 4804 ack 40 [0 0 0 0] ------- [9:0 0:0 32 0] [2 0] 0 0
s 30.126291619 _9_ RTR  --- 4804 ack 40 [0 0 0 0] ------- [9:0 0:0 30 11] [2 0] 0 0
s 30.126360950 _5_ RTR  --- 0 AODV 48 [0 ffffffff 7 800] ------- [5:255 -1:255 4 0] [0x2 2 2 [2 9] [7 12]] (REQUEST)
r 30.126906529 _7_ AGT  --- 4780 tcp 41 [13a 7 3 800] ------- [2:0 7:0 28 7] [2294 0] 3 0
s 30.126906529 _7_ AGT  --- 4805 ack 40 [0 0 0 0] ------- [7:0 2:0 32 0] [2294 0] 0 0
r 30.126906529 _7_ RTR  --- 4805 ack 40 [0 0 0 0] ------- [7:0 2:0 32 0] [2294 0] 0 0
r 30.128238671 _18_ RTR  --- 0 AODV 48 [0 ffffffff 7 800] ------- [7:255 -1:255 23 0] [0x2 8 5 [5 0] [4 12]] (REQUEST)
r 30.128238861 _5_ RTR  --- 0 AODV 48 [0 ffffffff 7 800] ------- [7:255 -1:255 23 0] [0x2 8 5 [5 0] [4 12]] (REQUEST)
r 30.128238906 _3_ RTR  --- 0 AODV 48 [0 ffffffff 7 800] ------- [7:255 -1:255 23 0] [0x2 8 5 [5 0] [4 12]] (REQUEST)
r 30.128517353 _11_ RTR  --- 4804 ack 40 [13a b 9 800] ------- [9:0 0:0 30 11] [2 0] 1 0
f 30.128517353 _11_ RTR  --- 4804 ack 40 [13a b 9 800] ------- [9:0 0:0 29 19] [2 0] 1 0
r 30.129316958 _3_ RTR  --- 0 AODV 48 [0 ffffffff 5 800] ------- [5:255 -1:255 4 0] [0x2 2 2 [2 9] [7 12]] (REQUEST)
r 30.129317193 _7_ RTR  --- 0 AODV 48 [0 ffffffff 5 800] ------- [5:255 -1:255 4 0] [0x2 2 2 [2 9] [7 12]] (REQUEST)
r 30.129317255 _18_ RTR  --- 0 AODV 48 [0 ffffffff 5 800] ------- [5:255 -1:255 4 0] [0x2 2 2 [2 9] [7 12]] (REQUEST)
r 30.129317510 _14_ RTR  --- 0 AODV 48 [0 ffffffff 5 800] ------- [5:255 -1:255 4 0] [0x2 2 2 [2 9] [7 12]] (REQUEST)
s 30.129549652 _18_ RTR  --- 0 AODV 48 [0 ffffffff 7 800] ------- [18:255 -1:255 4 0] [0x2 2 2 [2 9] [7 12]] (REQUEST)
r 30.130403587 _19_ RTR  --- 4804 ack 40 [13a 13 b 800] ------- [9:0 0:0 29 19] [2 0] 2 0
f 30.130403587 _19_ RTR  --- 4804 ack 40 [13a 13 b 800] ------- [9:0 0:0 28 0] [2 0] 2 0
r 30.130677795 _7_ RTR  --- 0 AODV 48 [0 ffffffff 12 800] ------- [18:255 -1:255 4 0] [0x2 2 2 [2 9] [7 12]] (REQUEST)
r 30.130678046 _5_ RTR  --- 0 AODV 48 [0 ffffffff 12 800] ------- [18:255 -1:255 4 0] [0x2 2 2 [2 9] [7 12]] (REQUEST)
r 30.130678058 _3_ RTR  --- 0 AODV 48 [0 ffffffff 12 800] ------- [18:255 -1:255 4 0] [0x2 2 2 [2 9] [7 12]] (REQUEST)
s 30.130822455 _3_ RTR  --- 0 AODV 48 [0 ffffffff 7 800] ------- [3:255 -1:255 4 0] [0x2 2 2 [2 9] [7 12]] (REQUEST)
r 30.131970552 _5_ RTR  --- 0 AODV 48 [0 ffffffff 3 800] ------- [3:255 -1:255 4 0] [0x2 2 2 [2 9] [7 12]] (REQUEST)
r 30.131970832 _7_ RTR  --- 0 AODV 48 [0 ffffffff 3 800] ------- [3:255 -1:255 4 0] [0x2 2 2 [2 9] [7 12]] (REQUEST)
r 30.131970861 _18_ RTR  --- 0 AODV 48 [0 ffffffff 3 800] ------- [3:255 -1:255 4 0] [0x2 2 2 [2 9] [7 12]] (REQUEST)
r 30.131971025 _14_ RTR  --- 0 AODV 48 [0 ffffffff 3 800] ------- [3:255 -1:255 4 0] [0x2 2 2 [2 9] [7 12]] (REQUEST)
r 30.131971207 _2_ RTR  --- 0 AODV 48 [0 ffffffff 3 800] ------- [3:255 -1:255 4 0] [0x2 2 2 [2 9] [7 12]] (REQUEST)
s 30.131971207 _2_ RTR  --- 0 AODV 44 [0 0 0 0] ------- [2:255 7:255 30 3] [0x4 1 [2 10] 10.000000] (REPLY)
r 30.133057821 _11_ RTR  --- 4800 tcp 41 [13a b 13 800] ------- [0:0 9:0 29 11] [3 0] 2 0
f 30.133057821 _11_ RTR  --- 4800 tcp 41 [13a b 13 800] ------- [0:0 9:0 28 9] [3 0] 2 0
r 30.135105050 _0_ AGT  --- 4804 ack 40 [13a 0 13 800] ------- [9:0 0:0 28 0] [2 0] 3 0
s 30.135105050 _0_ AGT  --- 4806 tcp 41 [0 0 0 0] ------- [0:0 9:0 32 0] [4 0] 0 0
r 30.135105050 _0_ RTR  --- 4806 tcp 41 [0 0 0 0] ------- [0:0 9:0 32 0] [4 0] 0 0
s 30.135105050 _0_ RTR  --- 4806 tcp 41 [0 0 0 0] ------- [0:0 9:0 30 19] [4 0] 0 0
r 30.137404680 _3_ RTR  --- 4782 tcp 41 [13a 3 8 800] ------- [2:0 7:0 29 3] [2295 0] 2 0
f 30.137404680 _3_ RTR  --- 4782 tcp 41 [13a 3 8 800] ------- [2:0 7:0 28 7] [2295 0] 2 0
s 30.138306317 _14_ RTR  --- 0 AODV 48 [0 ffffffff 5 800] ------- [14:255 -1:255 3 0] [0x2 3 2 [2 9] [7 12]] (REQUEST)
r 30.140188061 _2_ AGT  --- 4776 ack 40 [13a 2 8 800] ------- [7:0 2:0 28 2] [2284 0] 3 0
s 30.140188061 _2_ AGT  --- 4807 tcp 41 [0 0 0 0] ------- [2:0 7:0 32 0] [2304 0] 0 0
r 30.140188061 _2_ RTR  --- 4807 tcp 41 [0 0 0 0] ------- [2:0 7:0 32 0] [2304 0] 0 0
s 30.140188061 _2_ RTR  --- 4807 tcp 41 [0 0 0 0] ------- [2:0 7:0 30 3] [2304 0] 0 0
D 30.140188061 _2_ IFQ  ARP 0 AODV 44 [0 0 2 800] ------- [2:255 7:255 30 3] [0x4 1 [2 10] 10.000000] (REPLY)
r 30.142880487 _3_ RTR  --- 4784 tcp 41 [13a 3 8 800] ------- [2:0 7:0 29 3] [2296 0] 2 0
f 30.142880487 _3_ RTR  --- 4784 tcp 41 [13a 3 8 800] ------- [2:0 7:0 28 7] [2296 0] 2 0
r 30.144725714 _2_ AGT  --- 4781 ack 40 [13a 2 8 800] ------- [7:0 2:0 28 2] [2285 0] 3 0
s 30.144725714 _2_ AGT  --- 4808 tcp 41 [0 0 0 0] ------- [2:0 7:0 32 0] [2305 0] 0 0
r 30.144725714 _2_ RTR  --- 4808 tcp 41 [0 0 0 0] ------- [2:0 7:0 32 0] [2305 0] 0 0
s 30.144725714 _2_ RTR  --- 4808 tcp 41 [0 0 0 0] ------- [2:0 7:0 30 3] [2305 0] 0 0
D 30.144725714 _2_ IFQ  ARP 4807 tcp 41 [0 0 2 800] ------- [2:0 7:0 30 3] [2304 0] 0 0
r 30.146659599 _7_ AGT  --- 4782 tcp 41 [13a 7 3 800] ------- [2:0 7:0 28 7] [2295 0] 3 0
s 30.146659599 _7_ AGT  --- 4809 ack 40 [0 0 0 0] ------- [7:0 2:0 32 0] [2295 0] 0 0
r 30.146659599 _7_ RTR  --- 4809 ack 40 [0 0 0 0] ------- [7:0 2:0 32 0] [2295 0] 0 0
r 30.147025447 _19_ RTR  --- 4806 tcp 41 [13a 13 0 800] ------- [0:0 9:0 30 19] [4 0] 1 0
f 30.147025447 _19_ RTR  --- 4806 tcp 41 [13a 13 0 800] ------- [0:0 9:0 29 11] [4 0] 1 0
r 30.149029615 _9_ AGT  --- 4800 tcp 41 [13a 9 b 800] ------- [0:0 9:0 28 9] [3 0] 3 0
s 30.149029615 _9_ AGT  --- 4810 ack 40 [0 0 0 0] ------- [9:0 0:0 32 0] [3 0] 0 0
r 30.149029615 _9_ RTR  --- 4810 ack 40 [0 0 0 0] ------- [9:0 0:0 32 0] [3 0] 0 0
s 30.149029615 _9_ RTR  --- 4810 ack 40 [0 0 0 0] ------- [9:0 0:0 30 11] [3 0] 0 0
r 30.151015349 _11_ RTR  --- 4810 ack 40 [13a b 9 800] ------- [9:0 0:0 30 11] [3 0] 1 0
f 30.151015349 _11_ RTR  --- 4810 ack 40 [13a b 9 800] ------- [9:0 0:0 29 19] [3 0] 1 0
r 30.153240217 _11_ RTR  --- 4806 tcp 41 [13a b 13 800] ------- [0:0 9:0 29 11] [4 0] 2 0
f 30.153240217 _11_ RTR  --- 4806 tcp 41 [13a b 13 800] ------- [0:0 9:0 28 9] [4 0] 2 0
r 30.155166452 _19_ RTR  --- 4810 ack 40 [13a 13 b 800] ------- [9:0 0:0 29 19] [3 0] 2 0
f 30.155166452 _19_ RTR  --- 4810 ack 40 [13a 13 b 800] ------- [9:0 0:0 28 0] [3 0] 2 0
r 30.157340932 _9_ AGT  --- 4806 tcp 41 [13a 9 b 800] ------- [0:0 9:0 28 9] [4 0] 3 0
s 30.157340932 _9_ AGT  --- 4811 ack 40 [0 0 0 0] ------- [9:0 0:0 32 0] [4 0] 0 0
r 30.157340932 _9_ RTR  --- 4811 ack 40 [0 0 0 0] ------- [9:0 0:0 32 0] [4 0] 0 0
s 30.157340932 _9_ RTR  --- 4811 ack 40 [0 0 0 0] ------- [9:0 0:0 30 11] [4 0] 0 0
r 30.159246666 _11_ RTR  --- 4811 ack 40 [13a b 9 800] ------- [9:0 0:0 30 11] [4 0] 1 0
f 30.159246666 _11_ RTR  --- 4811 ack 40 [13a b 9 800] ------- [9:0 0:0 29 19] [4 0] 1 0
r 30.161263781 _0_ AGT  --- 4810 ack 40 [13a 0 13 800] ------- [9:0 0:0 28 0] [3 0] 3 0
s 30.161263781 _0_ AGT  --- 4812 tcp 41 [0 0 0 0] ------- [0:0 9:0 32 0] [5 0] 0 0
r 30.161263781 _0_ RTR  --- 4812 tcp 41 [0 0 0 0] ------- [0:0 9:0 32 0] [5 0] 0 0
s 30.161263781 _0_ RTR  --- 4812 tcp 41 [0 0 0 0] ------- [0:0 9:0 30 19] [5 0] 0 0
r 30.163481744 _19_ RTR  --- 4812 tcp 41 [13a 13 0 800] ------- [0:0 9:0 30 19] [5 0] 1 0
f 30.163481744 _19_ RTR  --- 4812 tcp 41 [13a 13 0 800] ------- [0:0 9:0 29 11] [5 0] 1 0
r 30.165375981 _11_ RTR  --- 4812 tcp 41 [13a b 13 800] ------- [0:0 9:0 29 11] [5 0] 2 0
f 30.165375981 _11_ RTR  --- 4812 tcp 41 [13a b 13 800] ------- [0:0 9:0 28 9] [5 0] 2 0
r 30.167542217 _19_ RTR  --- 4811 ack 40 [13a 13 b 800] ------- [9:0 0:0 29 19] [4 0] 2 0
f 30.167542217 _19_ RTR  --- 4811 ack 40 [13a 13 b 800] ------- [9:0 0:0 28 0] [4 0] 2 0
r 30.169388700 _0_ AGT  --- 4811 ack 40 [13a 0 13 800] ------- [9:0 0:0 28 0] [4 0] 3 0
s 30.169388700 _0_ AGT  --- 4813 tcp 41 [0 0 0 0] ------- [0:0 9:0 32 0] [6 0] 0 0
r 30.169388700 _0_ RTR  --- 4813 tcp 41 [0 0 0 0] ------- [0:0 9:0 32 0] [6 0] 0 0
s 30.169388700 _0_ AGT  --- 4814 tcp 41 [0 0 0 0] ------- [0:0 9:0 32 0] [7 0] 0 0
r 30.169388700 _0_ RTR  --- 4814 tcp 41 [0 0 0 0] ------- [0:0 9:0 32 0] [7 0] 0 0
s 30.169388700 _0_ RTR  --- 4813 tcp 41 [0 0 0 0] ------- [0:0 9:0 30 19] [6 0] 0 0
s 30.169388700 _0_ RTR  --- 4814 tcp 41 [0 0 0 0] ------- [0:0 9:0 30 19] [7 0] 0 0
r 30.172636578 _2_ AGT  --- 4783 ack 40 [13a 2 8 800] ------- [7:0 2:0 28 2] [2286 0] 3 0
s 30.172636578 _2_ AGT  --- 4815 tcp 41 [0 0 0 0] ------- [2:0 7:0 32 0] [2306 0] 0 0
r 30.172636578 _2_ RTR  --- 4815 tcp 41 [0 0 0 0] ------- [2:0 7:0 32 0] [2306 0] 0 0
s 30.172636578 _2_ RTR  --- 4815 tcp 41 [0 0 0 0] ------- [2:0 7:0 30 3] [2306 0] 0 0
D 30.172636578 _2_ RTR  CBK 4808 tcp 41 [0 0 2 800] ------- [2:0 7:0 30 3] [2305 0] 0 0
D 30.172636578 _2_ RTR  CBK 4815 tcp 41 [0 0 2 800] ------- [2:0 7:0 30 3] [2306 0] 0 0
s 30.172636578 _2_ RTR  --- 0 AODV 32 [0 0 0 0] ------- [2:255 -1:255 1 0] [0x8 1 [7 0] 0.000000] (ERROR)
r 30.174856308 _19_ RTR  --- 4813 tcp 41 [13a 13 0 800] ------- [0:0 9:0 30 19] [6 0] 1 0
f 30.174856308 _19_ RTR  --- 4813 tcp 41 [13a 13 0 800] ------- [0:0 9:0 29 11] [6 0] 1 0
r 30.176880476 _9_ AGT  --- 4812 tcp 41 [13a 9 b 800] ------- [0:0 9:0 28 9] [5 0] 3 0
s 30.176880476 _9_ AGT  --- 4816 ack 40 [0 0 0 0] ------- [9:0 0:0 32 0] [5 0] 0 0
r 30.176880476 _9_ RTR  --- 4816 ack 40 [0 0 0 0] ------- [9:0 0:0 32 0] [5 0] 0 0
s 30.176880476 _9_ RTR  --- 4816 ack 40 [0 0 0 0] ------- [9:0 0:0 30 11] [5 0] 0 0
r 30.179852789 _3_ RTR  --- 4785 tcp 41 [13a 3 8 800] ------- [2:0 7:0 29 3] [2297 0] 2 0
f 30.179852789 _3_ RTR  --- 4785 tcp 41 [13a 3 8 800] ------- [2:0 7:0 28 7] [2297 0] 2 0
r 30.181687814 _3_ RTR  --- 4786 tcp 41 [13a 3 8 800] ------- [2:0 7:0 29 3] [2298 0] 2 0
f 30.181687814 _3_ RTR  --- 4786 tcp 41 [13a 3 8 800] ------- [2:0 7:0 28 7] [2298 0] 2 0
r 30.182892722 _8_ RTR  --- 0 AODV 32 [0 ffffffff 2 800] ------- [2:255 -1:255 1 0] [0x8 1 [7 0] 0.000000] (ERROR)
r 30.182892886 _14_ RTR  --- 0 AODV 32 [0 ffffffff 2 800] ------- [2:255 -1:255 1 0] [0x8 1 [7 0] 0.000000] (ERROR)
r 30.182893265 _15_ RTR  --- 0 AODV 32 [0 ffffffff 2 800] ------- [2:255 -1:255 1 0] [0x8 1 [7 0] 0.000000] (ERROR)
r 30.182893279 _13_ RTR  --- 0 AODV 32 [0 ffffffff 2 800] ------- [2:255 -1:255 1 0] [0x8 1 [7 0] 0.000000] (ERROR)
r 30.182893304 _1_ RTR  --- 0 AODV 32 [0 ffffffff 2 800] ------- [2:255 -1:255 1 0] [0x8 1 [7 0] 0.000000] (ERROR)
r 30.182893315 _3_ RTR  --- 0 AODV 32 [0 ffffffff 2 800] ------- [2:255 -1:255 1 0] [0x8 1 [7 0] 0.000000] (ERROR)
r 30.184652991 _3_ RTR  --- 4789 tcp 41 [13a 3 8 800] ------- [2:0 7:0 29 3] [2299 0] 2 0
f 30.184652991 _3_ RTR  --- 4789 tcp 41 [13a 3 8 800] ------- [2:0 7:0 28 7] [2299 0] 2 0
r 30.188024260 _2_ AGT  --- 4787 ack 40 [13a 2 8 800] ------- [7:0 2:0 28 2] [2287 0] 3 0
s 30.188024260 _2_ AGT  --- 4817 tcp 41 [0 0 0 0] ------- [2:0 7:0 32 0] [2307 0] 0 0
r 30.188024260 _2_ RTR  --- 4817 tcp 41 [0 0 0 0] ------- [2:0 7:0 32 0] [2307 0] 0 0
s 30.188024260 _2_ RTR  --- 0 AODV 48 [0 0 0 0] ------- [2:255 -1:255 5 0] [0x2 1 3 [7 13] [2 16]] (REQUEST)
r 30.190274733 _8_ RTR  --- 0 AODV 48 [0 ffffffff 2 800] ------- [2:255 -1:255 5 0] [0x2 1 3 [7 13] [2 16]] (REQUEST)
r 30.190274896 _14_ RTR  --- 0 AODV 48 [0 ffffffff 2 800] ------- [2:255 -1:255 5 0] [0x2 1 3 [7 13] [2 16]] (REQUEST)
r 30.190275276 _15_ RTR  --- 0 AODV 48 [0 ffffffff 2 800] ------- [2:255 -1:255 5 0] [0x2 1 3 [7 13] [2 16]] (REQUEST)
r 30.190275290 _13_ RTR  --- 0 AODV 48 [0 ffffffff 2 800] ------- [2:255 -1:255 5 0] [0x2 1 3 [7 13] [2 16]] (REQUEST)
r 30.190275314 _1_ RTR  --- 0 AODV 48 [0 ffffffff 2 800] ------- [2:255 -1:255 5 0] [0x2 1 3 [7 13] [2 16]] (REQUEST)
r 30.190275326 _3_ RTR  --- 0 AODV 48 [0 ffffffff 2 800] ------- [2:255 -1:255 5 0] [0x2 1 3 [7 13] [2 16]] (REQUEST)
s 30.190953934 _14_ RTR  --- 0 AODV 48 [0 ffffffff 2 800] ------- [14:255 -1:255 4 0] [0x2 2 3 [7 13] [2 16]] (REQUEST)
s 30.191818766 _3_ RTR  --- 0 AODV 48 [0 ffffffff 2 800] ------- [3:255 -1:255 4 0] [0x2 2 3 [7 13] [2 16]] (REQUEST)
s 30.193366293 _8_ RTR  --- 0 AODV 48 [0 ffffffff 2 800] ------- [8:255 -1:255 4 0] [0x2 2 3 [7 13] [2 16]] (REQUEST)
r 30.193925428 _3_ RTR  --- 4791 tcp 41 [13a 3 8 800] ------- [2:0 7:0 29 3] [2300 0] 2 0
f 30.193925428 _3_ RTR  --- 4791 tcp 41 [13a 3 8 800] ------- [2:0 7:0 28 7] [2300 0] 2 0
s 30.195027461 _13_ RTR  --- 0 AODV 48 [0 ffffffff 2 800] ------- [13:255 -1:255 4 0] [0x2 2 3 [7 13] [2 16]] (REQUEST)
s 30.195414989 _1_ RTR  --- 0 AODV 48 [0 ffffffff 2 800] ------- [1:255 -1:255 4 0] [0x2 2 3 [7 13] [2 16]] (REQUEST)
r 30.196075815 _1_ RTR  --- 0 AODV 48 [0 ffffffff d 800] ------- [13:255 -1:255 4 0] [0x2 2 3 [7 13] [2 16]] (REQUEST)
r 30.196076000 _15_ RTR  --- 0 AODV 48 [0 ffffffff d 800] ------- [13:255 -1:255 4 0] [0x2 2 3 [7 13] [2 16]] (REQUEST)
r 30.196076268 _8_ RTR  --- 0 AODV 48 [0 ffffffff d 800] ------- [13:255 -1:255 4 0] [0x2 2 3 [7 13] [2 16]] (REQUEST)
r 30.196076349 _14_ RTR  --- 0 AODV 48 [0 ffffffff d 800] ------- [13:255 -1:255 4 0] [0x2 2 3 [7 13] [2 16]] (REQUEST)
r 30.196076378 _12_ RTR  --- 0 AODV 48 [0 ffffffff d 800] ------- [13:255 -1:255 4 0] [0x2 2 3 [7 13] [2 16]] (REQUEST)
r 30.196076408 _2_ RTR  --- 0 AODV 48 [0 ffffffff d 800] ------- [13:255 -1:255 4 0] [0x2 2 3 [7 13] [2 16]] (REQUEST)
r 30.197034426 _2_ RTR  --- 0 AODV 48 [0 ffffffff 8 800] ------- [8:255 -1:255 4 0] [0x2 2 3 [7 13] [2 16]] (REQUEST)
r 30.197034497 _14_ RTR  --- 0 AODV 48 [0 ffffffff 8 800] ------- [8:255 -1:255 4 0] [0x2 2 3 [7 13] [2 16]] (REQUEST)
r 30.197034843 _13_ RTR  --- 0 AODV 48 [0 ffffffff 8 800] ------- [8:255 -1:255 4 0] [0x2 2 3 [7 13] [2 16]] (REQUEST)
r 30.197034879 _15_ RTR  --- 0 AODV 48 [0 ffffffff 8 800] ------- [8:255 -1:255 4 0] [0x2 2 3 [7 13] [2 16]] (REQUEST)
r 30.197034883 _1_ RTR  --- 0 AODV 48 [0 ffffffff 8 800] ------- [8:255 -1:255 4 0] [0x2 2 3 [7 13] [2 16]] (REQUEST)
r 30.197035025 _3_ RTR  --- 0 AODV 48 [0 ffffffff 8 800] ------- [8:255 -1:255 4 0] [0x2 2 3 [7 13] [2 16]] (REQUEST)
s 30.197460800 _12_ RTR  --- 0 AODV 48 [0 ffffffff d 800] ------- [12:255 -1:255 3 0] [0x2 3 3 [7 13] [2 16]] (REQUEST)
r 30.198818112 _1_ RTR  --- 0 AODV 44 [13a 1 8 800] ------- [8:255 1:255 30 1] [0x4 1 [8 6] 10.000000] (REPLY)
s 30.198818112 _1_ RTR  --- 3452 tcp 40 [0 0 0 0] ------- [1:0 8:0 30 8] [0 0] 0 0
r 30.200070234 _13_ RTR  --- 0 AODV 48 [0 ffffffff 1 800] ------- [1:255 -1:255 4 0] [0x2 2 3 [7 13] [2 16]] (REQUEST)
r 30.200070310 _15_ RTR  --- 0 AODV 48 [0 ffffffff 1 800] ------- [1:255 -1:255 4 0] [0x2 2 3 [7 13] [2 16]] (REQUEST)
r 30.200070689 _12_ RTR  --- 0 AODV 48 [0 ffffffff 1 800] ------- [1:255 -1:255 4 0] [0x2 2 3 [7 13] [2 16]] (REQUEST)
r 30.200070726 _8_ RTR  --- 0 AODV 48 [0 ffffffff 1 800] ------- [1:255 -1:255 4 0] [0x2 2 3 [7 13] [2 16]] (REQUEST)
r 30.200070842 _14_ RTR  --- 0 AODV 48 [0 ffffffff 1 800] ------- [1:255 -1:255 4 0] [0x2 2 3 [7 13] [2 16]] (REQUEST)
r 30.200070850 _2_ RTR  --- 0 AODV 48 [0 ffffffff 1 800] ------- [1:255 -1:255 4 0] [0x2 2 3 [7 13] [2 16]] (REQUEST)
s 30.200182604 _15_ RTR  --- 0 AODV 48 [0 ffffffff 2 800] ------- [15:255 -1:255 4 0] [0x2 2 3 [7 13] [2 16]] (REQUEST)
r 30.201089196 _11_ RTR  --- 0 AODV 48 [0 ffffffff c 800] ------- [12:255 -1:255 3 0] [0x2 3 3 [7 13] [2 16]] (REQUEST)
r 30.201089216 _15_ RTR  --- 0 AODV 48 [0 ffffffff c 800] ------- [12:255 -1:255 3 0] [0x2 3 3 [7 13] [2 16]] (REQUEST)
r 30.201089267 _1_ RTR  --- 0 AODV 48 [0 ffffffff c 800] ------- [12:255 -1:255 3 0] [0x2 3 3 [7 13] [2 16]] (REQUEST)
r 30.201089300 _9_ RTR  --- 0 AODV 48 [0 ffffffff c 800] ------- [12:255 -1:255 3 0] [0x2 3 3 [7 13] [2 16]] (REQUEST)
r 30.201089374 _13_ RTR  --- 0 AODV 48 [0 ffffffff c 800] ------- [12:255 -1:255 3 0] [0x2 3 3 [7 13] [2 16]] (REQUEST)
r 30.202047414 _1_ RTR  --- 0 AODV 48 [0 ffffffff f 800] ------- [15:255 -1:255 4 0] [0x2 2 3 [7 13] [2 16]] (REQUEST)
r 30.202047522 _13_ RTR  --- 0 AODV 48 [0 ffffffff f 800] ------- [15:255 -1:255 4 0] [0x2 2 3 [7 13] [2 16]] (REQUEST)
r 30.202047742 _12_ RTR  --- 0 AODV 48 [0 ffffffff f 800] ------- [15:255 -1:255 4 0] [0x2 2 3 [7 13] [2 16]] (REQUEST)
r 30.202047826 _8_ RTR  --- 0 AODV 48 [0 ffffffff f 800] ------- [15:255 -1:255 4 0] [0x2 2 3 [7 13] [2 16]] (REQUEST)
r 30.202047917 _2_ RTR  --- 0 AODV 48 [0 ffffffff f 800] ------- [15:255 -1:255 4 0] [0x2 2 3 [7 13] [2 16]] (REQUEST)
r 30.202047994 _14_ RTR  --- 0 AODV 48 [0 ffffffff f 800] ------- [15:255 -1:255 4 0] [0x2 2 3 [7 13] [2 16]] (REQUEST)
r 30.202047997 _11_ RTR  --- 0 AODV 48 [0 ffffffff f 800] ------- [15:255 -1:255 4 0] [0x2 2 3 [7 13] [2 16]] (REQUEST)
r 30.203739257 _8_ AGT  --- 3452 tcp 40 [13a 8 1 800] ------- [1:0 8:0 30 8] [0 0] 1 0
s 30.203739257 _8_ AGT  --- 4818 ack 40 [0 0 0 0] ------- [8:0 1:0 32 0] [0 0] 0 0
r 30.203739257 _8_ RTR  --- 4818 ack 40 [0 0 0 0] ------- [8:0 1:0 32 0] [0 0] 0 0
s 30.203739257 _8_ RTR  --- 4818 ack 40 [0 0 0 0] ------- [8:0 1:0 30 1] [0 0] 0 0
r 30.205733526 _3_ RTR  --- 4792 tcp 41 [13a 3 8 800] ------- [2:0 7:0 29 3] [2301 0] 2 0
f 30.205733526 _3_ RTR  --- 4792 tcp 41 [13a 3 8 800] ------- [2:0 7:0 28 7] [2301 0] 2 0
r 30.207908552 _3_ RTR  --- 4793 tcp 41 [13a 3 8 800] ------- [2:0 7:0 29 3] [2302 0] 2 0
f 30.207908552 _3_ RTR  --- 4793 tcp 41 [13a 3 8 800] ------- [2:0 7:0 28 7] [2302 0] 2 0
s 30.210053939 _11_ RTR  --- 0 AODV 48 [0 ffffffff c 800] ------- [11:255 -1:255 2 0] [0x2 4 3 [7 13] [2 16]] (REQUEST)
r 30.210073635 _19_ RTR  --- 4814 tcp 41 [13a 13 0 800] ------- [0:0 9:0 30 19] [7 0] 1 0
f 30.210073635 _19_ RTR  --- 4814 tcp 41 [13a 13 0 800] ------- [0:0 9:0 29 11] [7 0] 1 0
s 30.210814190 _9_ RTR  --- 0 AODV 48 [0 ffffffff c 800] ------- [9:255 -1:255 2 0] [0x2 4 3 [7 13] [2 16]] (REQUEST)
r 30.211987876 _11_ RTR  --- 4813 tcp 41 [13a b 13 800] ------- [0:0 9:0 29 11] [6 0] 2 0
f 30.211987876 _11_ RTR  --- 4813 tcp 41 [13a b 13 800] ------- [0:0 9:0 28 9] [6 0] 2 0
r 30.213924074 _11_ RTR  --- 4816 ack 40 [13a b 9 800] ------- [9:0 0:0 30 11] [5 0] 1 0
f 30.213924074 _11_ RTR  --- 4816 ack 40 [13a b 9 800] ------- [9:0 0:0 29 19] [5 0] 1 0
r 30.214020650 _5_ RTR  --- 0 AODV 48 [0 ffffffff 3 800] ------- [3:255 -1:255 4 0] [0x2 2 3 [7 13] [2 16]] (REQUEST)
r 30.214020931 _7_ RTR  --- 0 AODV 48 [0 ffffffff 3 800] ------- [3:255 -1:255 4 0] [0x2 2 3 [7 13] [2 16]] (REQUEST)
s 30.214020931 _7_ RTR  --- 4798 ack 40 [0 0 0 0] ------- [7:0 2:0 30 3] [2290 0] 0 0
s 30.214020931 _7_ RTR  --- 4801 ack 40 [0 0 0 0] ------- [7:0 2:0 30 3] [2291 0] 0 0
s 30.214020931 _7_ RTR  --- 4802 ack 40 [0 0 0 0] ------- [7:0 2:0 30 3] [2292 0] 0 0
s 30.214020931 _7_ RTR  --- 4803 ack 40 [0 0 0 0] ------- [7:0 2:0 30 3] [2293 0] 0 0
s 30.214020931 _7_ RTR  --- 4805 ack 40 [0 0 0 0] ------- [7:0 2:0 30 3] [2294 0] 0 0
s 30.214020931 _7_ RTR  --- 4809 ack 40 [0 0 0 0] ------- [7:0 2:0 30 3] [2295 0] 0 0
s 30.214020931 _7_ RTR  --- 0 AODV 44 [0 0 0 0] ------- [7:255 2:255 30 3] [0x4 1 [7 14] 10.000000] (REPLY)
r 30.214020957 _18_ RTR  --- 0 AODV 48 [0 ffffffff 3 800] ------- [3:255 -1:255 4 0] [0x2 2 3 [7 13] [2 16]] (REQUEST)
r 30.214021120 _14_ RTR  --- 0 AODV 48 [0 ffffffff 3 800] ------- [3:255 -1:255 4 0] [0x2 2 3 [7 13] [2 16]] (REQUEST)
r 30.216068948 _11_ RTR  --- 4814 tcp 41 [13a b 13 800] ------- [0:0 9:0 29 11] [7 0] 2 0
f 30.216068948 _11_ RTR  --- 4814 tcp 41 [13a b 13 800] ------- [0:0 9:0 28 9] [7 0] 2 0
r 30.217421455 _12_ RTR  --- 0 AODV 48 [0 ffffffff b 800] ------- [11:255 -1:255 2 0] [0x2 4 3 [7 13] [2 16]] (REQUEST)
r 30.217421527 _9_ RTR  --- 0 AODV 48 [0 ffffffff b 800] ------- [11:255 -1:255 2 0] [0x2 4 3 [7 13] [2 16]] (REQUEST)
r 30.217421695 _19_ RTR  --- 0 AODV 48 [0 ffffffff b 800] ------- [11:255 -1:255 2 0] [0x2 4 3 [7 13] [2 16]] (REQUEST)
r 30.217421729 _15_ RTR  --- 0 AODV 48 [0 ffffffff b 800] ------- [11:255 -1:255 2 0] [0x2 4 3 [7 13] [2 16]] (REQUEST)
r 30.217421778 _4_ RTR  --- 0 AODV 48 [0 ffffffff b 800] ------- [11:255 -1:255 2 0] [0x2 4 3 [7 13] [2 16]] (REQUEST)
s 30.217695059 _18_ RTR  --- 0 AODV 48 [0 ffffffff 3 800] ------- [18:255 -1:255 3 0] [0x2 3 3 [7 13] [2 16]] (REQUEST)
r 30.218419794 _4_ RTR  --- 0 AODV 48 [0 ffffffff 9 800] ------- [9:255 -1:255 2 0] [0x2 4 3 [7 13] [2 16]] (REQUEST)
r 30.218420086 _6_ RTR  --- 0 AODV 48 [0 ffffffff 9 800] ------- [9:255 -1:255 2 0] [0x2 4 3 [7 13] [2 16]] (REQUEST)
r 30.218420105 _11_ RTR  --- 0 AODV 48 [0 ffffffff 9 800] ------- [9:255 -1:255 2 0] [0x2 4 3 [7 13] [2 16]] (REQUEST)
r 30.218420137 _12_ RTR  --- 0 AODV 48 [0 ffffffff 9 800] ------- [9:255 -1:255 2 0] [0x2 4 3 [7 13] [2 16]] (REQUEST)
r 30.219360067 _3_ RTR  --- 4798 ack 40 [13a 3 7 800] ------- [7:0 2:0 30 3] [2290 0] 1 0
f 30.219360067 _3_ RTR  --- 4798 ack 40 [13a 3 7 800] ------- [7:0 2:0 29 2] [2290 0] 1 0
s 30.219607194 _5_ RTR  --- 0 AODV 48 [0 ffffffff 3 800] ------- [5:255 -1:255 3 0] [0x2 3 3 [7 13] [2 16]] (REQUEST)
s 30.219993681 _19_ RTR  --- 0 AODV 48 [0 ffffffff b 800] ------- [19:255 -1:255 1 0] [0x2 5 3 [7 13] [2 16]] (REQUEST)
r 30.220159839 _9_ AGT  --- 4813 tcp 41 [13a 9 b 800] ------- [0:0 9:0 28 9] [6 0] 3 0
s 30.220159839 _9_ AGT  --- 4819 ack 40 [0 0 0 0] ------- [9:0 0:0 32 0] [6 0] 0 0
r 30.220159839 _9_ RTR  --- 4819 ack 40 [0 0 0 0] ------- [9:0 0:0 32 0] [6 0] 0 0
s 30.220159839 _9_ RTR  --- 4819 ack 40 [0 0 0 0] ------- [9:0 0:0 30 11] [6 0] 0 0
r 30.221317582 _3_ RTR  --- 0 AODV 44 [13a 3 7 800] ------- [7:255 2:255 30 3] [0x4 1 [7 14] 10.000000] (REPLY)
f 30.221317582 _3_ RTR  --- 0 AODV 44 [13a 3 7 800] ------- [7:255 2:255 29 2] [0x4 2 [7 14] 10.000000] (REPLY)
r 30.222165574 _11_ RTR  --- 4819 ack 40 [13a b 9 800] ------- [9:0 0:0 30 11] [6 0] 1 0
f 30.222165574 _11_ RTR  --- 4819 ack 40 [13a b 9 800] ------- [9:0 0:0 29 19] [6 0] 1 0
r 30.222590126 _7_ RTR  --- 0 AODV 48 [0 ffffffff 12 800] ------- [18:255 -1:255 3 0] [0x2 3 3 [7 13] [2 16]] (REQUEST)
r 30.222590378 _5_ RTR  --- 0 AODV 48 [0 ffffffff 12 800] ------- [18:255 -1:255 3 0] [0x2 3 3 [7 13] [2 16]] (REQUEST)
r 30.222590390 _3_ RTR  --- 0 AODV 48 [0 ffffffff 12 800] ------- [18:255 -1:255 3 0] [0x2 3 3 [7 13] [2 16]] (REQUEST)
r 30.223688475 _3_ RTR  --- 0 AODV 48 [0 ffffffff 5 800] ------- [5:255 -1:255 3 0] [0x2 3 3 [7 13] [2 16]] (REQUEST)
r 30.224091815 _19_ RTR  --- 4816 ack 40 [13a 13 b 800] ------- [9:0 0:0 29 19] [5 0] 2 0
f 30.224091815 _19_ RTR  --- 4816 ack 40 [13a 13 b 800] ------- [9:0 0:0 28 0] [5 0] 2 0
s 30.225041501 _4_ RTR  --- 0 AODV 48 [0 ffffffff b 800] ------- [4:255 -1:255 1 0] [0x2 5 3 [7 13] [2 16]] (REQUEST)
r 30.225604214 _10_ RTR  --- 0 AODV 48 [0 ffffffff 13 800] ------- [19:255 -1:255 1 0] [0x2 5 3 [7 13] [2 16]] (REQUEST)