r 55.471930812 _10_ RTR  --- 611 ack 40 [13a a 7 800] ------- [4:0 0:0 28 10] [262 0] 3 0
f 55.471930812 _10_ RTR  --- 611 ack 40 [13a a 7 800] ------- [4:0 0:0 27 0] [262 0] 3 0
r 55.474017134 _0_ AGT  --- 611 ack 40 [13a 0 a 800] ------- [4:0 0:0 27 0] [262 0] 4 0
s 55.474017134 _0_ AGT  --- 612 tcp 1540 [0 0 0 0] ------- [0:0 4:0 32 0] [263 0] 0 0
r 55.474017134 _0_ RTR  --- 612 tcp 1540 [0 0 0 0] ------- [0:0 4:0 32 0] [263 0] 0 0
s 55.474017134 _0_ AGT  --- 613 tcp 1540 [0 0 0 0] ------- [0:0 4:0 32 0] [264 0] 0 0
r 55.474017134 _0_ RTR  --- 613 tcp 1540 [0 0 0 0] ------- [0:0 4:0 32 0] [264 0] 0 0
s 55.474017134 _0_ RTR  --- 612 tcp 1540 [0 0 0 0] ------- [0:0 4:0 30 10] [263 0] 0 0
s 55.474017134 _0_ RTR  --- 613 tcp 1540 [0 0 0 0] ------- [0:0 4:0 30 10] [264 0] 0 0
r 55.487943456 _10_ RTR  --- 612 tcp 1540 [13a a 0 800] ------- [0:0 4:0 30 10] [263 0] 1 0
f 55.487943456 _10_ RTR  --- 612 tcp 1540 [13a a 0 800] ------- [0:0 4:0 29 7] [263 0] 1 0
r 55.501889485 _7_ RTR  --- 612 tcp 1540 [13a 7 a 800] ------- [0:0 4:0 29 7] [263 0] 2 0
f 55.501889485 _7_ RTR  --- 612 tcp 1540 [13a 7 a 800] ------- [0:0 4:0 28 14] [263 0] 2 0
r 55.515715905 _14_ RTR  --- 612 tcp 1540 [13a e 7 800] ------- [0:0 4:0 28 14] [263 0] 3 0
f 55.515715905 _14_ RTR  --- 612 tcp 1540 [13a e 7 800] ------- [0:0 4:0 27 4] [263 0] 3 0
r 55.529641308 _4_ AGT  --- 612 tcp 1540 [13a 4 e 800] ------- [0:0 4:0 27 4] [263 0] 4 0
s 55.529641308 _4_ AGT  --- 614 ack 40 [0 0 0 0] ------- [4:0 0:0 32 0] [263 0] 0 0
r 55.529641308 _4_ RTR  --- 614 ack 40 [0 0 0 0] ------- [4:0 0:0 32 0] [263 0] 0 0
s 55.529641308 _4_ RTR  --- 614 ack 40 [0 0 0 0] ------- [4:0 0:0 30 14] [263 0] 0 0
r 55.532646710 _14_ RTR  --- 614 ack 40 [13a e 4 800] ------- [4:0 0:0 30 14] [263 0] 1 0
f 55.532646710 _14_ RTR  --- 614 ack 40 [13a e 4 800] ------- [4:0 0:0 29 7] [263 0] 1 0
r 55.534893128 _7_ RTR  --- 614 ack 40 [13a 7 e 800] ------- [4:0 0:0 29 7] [263 0] 2 0
f 55.534893128 _7_ RTR  --- 614 ack 40 [13a 7 e 800] ------- [4:0 0:0 28 10] [263 0] 2 0
r 55.536959158 _10_ RTR  --- 614 ack 40 [13a a 7 800] ------- [4:0 0:0 28 10] [263 0] 3 0
f 55.536959158 _10_ RTR  --- 614 ack 40 [13a a 7 800] ------- [4:0 0:0 27 0] [263 0] 3 0
r 55.550876245 _10_ RTR  --- 613 tcp 1540 [13a a 0 800] ------- [0:0 4:0 30 10] [264 0] 1 0
f 55.550876245 _10_ RTR  --- 613 tcp 1540 [13a a 0 800] ------- [0:0 4:0 29 7] [264 0] 1 0
r 55.552962563 _0_ AGT  --- 614 ack 40 [13a 0 a 800] ------- [4:0 0:0 27 0] [263 0] 4 0
s 55.552962563 _0_ AGT  --- 615 tcp 1540 [0 0 0 0] ------- [0:0 4:0 32 0] [265 0] 0 0
r 55.552962563 _0_ RTR  --- 615 tcp 1540 [0 0 0 0] ------- [0:0 4:0 32 0] [265 0] 0 0
s 55.552962563 _0_ RTR  --- 615 tcp 1540 [0 0 0 0] ------- [0:0 4:0 30 10] [265 0] 0 0
r 55.566788881 _10_ RTR  --- 615 tcp 1540 [13a a 0 800] ------- [0:0 4:0 30 10] [265 0] 1 0
f 55.566788881 _10_ RTR  --- 615 tcp 1540 [13a a 0 800] ------- [0:0 4:0 29 7] [265 0] 1 0
r 55.580854911 _7_ RTR  --- 613 tcp 1540 [13a 7 a 800] ------- [0:0 4:0 29 7] [264 0] 2 0
f 55.580854911 _7_ RTR  --- 613 tcp 1540 [13a 7 a 800] ------- [0:0 4:0 28 14] [264 0] 2 0
r 55.595021618 _7_ RTR  --- 615 tcp 1540 [13a 7 a 800] ------- [0:0 4:0 29 7] [265 0] 2 0
f 55.595021618 _7_ RTR  --- 615 tcp 1540 [13a 7 a 800] ------- [0:0 4:0 28 14] [265 0] 2 0
r 55.609028033 _14_ RTR  --- 613 tcp 1540 [13a e 7 800] ------- [0:0 4:0 28 14] [264 0] 3 0
f 55.609028033 _14_ RTR  --- 613 tcp 1540 [13a e 7 800] ------- [0:0 4:0 27 4] [264 0] 3 0
r 55.623255251 _14_ RTR  --- 615 tcp 1540 [13a e 7 800] ------- [0:0 4:0 28 14] [265 0] 3 0
f 55.623255251 _14_ RTR  --- 615 tcp 1540 [13a e 7 800] ------- [0:0 4:0 27 4] [265 0] 3 0
r 55.637280654 _4_ AGT  --- 613 tcp 1540 [13a 4 e 800] ------- [0:0 4:0 27 4] [264 0] 4 0
s 55.637280654 _4_ AGT  --- 616 ack 40 [0 0 0 0] ------- [4:0 0:0 32 0] [264 0] 0 0
r 55.637280654 _4_ RTR  --- 616 ack 40 [0 0 0 0] ------- [4:0 0:0 32 0] [264 0] 0 0
s 55.637280654 _4_ RTR  --- 616 ack 40 [0 0 0 0] ------- [4:0 0:0 30 14] [264 0] 0 0
r 55.651386525 _4_ AGT  --- 615 tcp 1540 [13a 4 e 800] ------- [0:0 4:0 27 4] [265 0] 4 0
s 55.651386525 _4_ AGT  --- 617 ack 40 [0 0 0 0] ------- [4:0 0:0 32 0] [265 0] 0 0
r 55.651386525 _4_ RTR  --- 617 ack 40 [0 0 0 0] ------- [4:0 0:0 32 0] [265 0] 0 0
s 55.651386525 _4_ RTR  --- 617 ack 40 [0 0 0 0] ------- [4:0 0:0 30 14] [265 0] 0 0
r 55.653491928 _14_ RTR  --- 616 ack 40 [13a e 4 800] ------- [4:0 0:0 30 14] [264 0] 1 0
f 55.653491928 _14_ RTR  --- 616 ack 40 [13a e 4 800] ------- [4:0 0:0 29 7] [264 0] 1 0
r 55.655717799 _14_ RTR  --- 617 ack 40 [13a e 4 800] ------- [4:0 0:0 30 14] [265 0] 1 0
f 55.655717799 _14_ RTR  --- 617 ack 40 [13a e 4 800] ------- [4:0 0:0 29 7] [265 0] 1 0
r 55.657744210 _7_ RTR  --- 616 ack 40 [13a 7 e 800] ------- [4:0 0:0 29 7] [264 0] 2 0
f 55.657744210 _7_ RTR  --- 616 ack 40 [13a 7 e 800] ------- [4:0 0:0 28 10] [264 0] 2 0
r 55.659971425 _7_ RTR  --- 617 ack 40 [13a 7 e 800] ------- [4:0 0:0 29 7] [265 0] 2 0
f 55.659971425 _7_ RTR  --- 617 ack 40 [13a 7 e 800] ------- [4:0 0:0 28 10] [265 0] 2 0
r 55.661937456 _10_ RTR  --- 616 ack 40 [13a a 7 800] ------- [4:0 0:0 28 10] [264 0] 3 0
f 55.661937456 _10_ RTR  --- 616 ack 40 [13a a 7 800] ------- [4:0 0:0 27 0] [264 0] 3 0
r 55.664043769 _0_ AGT  --- 616 ack 40 [13a 0 a 800] ------- [4:0 0:0 27 0] [264 0] 4 0
s 55.664043769 _0_ AGT  --- 618 tcp 1540 [0 0 0 0] ------- [0:0 4:0 32 0] [266 0] 0 0
r 55.664043769 _0_ RTR  --- 618 tcp 1540 [0 0 0 0] ------- [0:0 4:0 32 0] [266 0] 0 0
s 55.664043769 _0_ RTR  --- 618 tcp 1540 [0 0 0 0] ------- [0:0 4:0 30 10] [266 0] 0 0
r 55.678370082 _10_ RTR  --- 618 tcp 1540 [13a a 0 800] ------- [0:0 4:0 30 10] [266 0] 1 0
f 55.678370082 _10_ RTR  --- 618 tcp 1540 [13a a 0 800] ------- [0:0 4:0 29 7] [266 0] 1 0
r 55.692316113 _7_ RTR  --- 618 tcp 1540 [13a 7 a 800] ------- [0:0 4:0 29 7] [266 0] 2 0
f 55.692316113 _7_ RTR  --- 618 tcp 1540 [13a 7 a 800] ------- [0:0 4:0 28 14] [266 0] 2 0
r 55.694222145 _10_ RTR  --- 617 ack 40 [13a a 7 800] ------- [4:0 0:0 28 10] [265 0] 3 0
f 55.694222145 _10_ RTR  --- 617 ack 40 [13a a 7 800] ------- [4:0 0:0 27 0] [265 0] 3 0
r 55.696128456 _0_ AGT  --- 617 ack 40 [13a 0 a 800] ------- [4:0 0:0 27 0] [265 0] 4 0
s 55.696128456 _0_ AGT  --- 619 tcp 1540 [0 0 0 0] ------- [0:0 4:0 32 0] [267 0] 0 0
r 55.696128456 _0_ RTR  --- 619 tcp 1540 [0 0 0 0] ------- [0:0 4:0 32 0] [267 0] 0 0
s 55.696128456 _0_ AGT  --- 620 tcp 1540 [0 0 0 0] ------- [0:0 4:0 32 0] [268 0] 0 0
r 55.696128456 _0_ RTR  --- 620 tcp 1540 [0 0 0 0] ------- [0:0 4:0 32 0] [268 0] 0 0
s 55.696128456 _0_ RTR  --- 619 tcp 1540 [0 0 0 0] ------- [0:0 4:0 30 10] [267 0] 0 0
s 55.696128456 _0_ RTR  --- 620 tcp 1540 [0 0 0 0] ------- [0:0 4:0 30 10] [268 0] 0 0
r 55.710194767 _10_ RTR  --- 619 tcp 1540 [13a a 0 800] ------- [0:0 4:0 30 10] [267 0] 1 0
f 55.710194767 _10_ RTR  --- 619 tcp 1540 [13a a 0 800] ------- [0:0 4:0 29 7] [267 0] 1 0
r 55.724201848 _10_ RTR  --- 620 tcp 1540 [13a a 0 800] ------- [0:0 4:0 30 10] [268 0] 1 0
f 55.724201848 _10_ RTR  --- 620 tcp 1540 [13a a 0 800] ------- [0:0 4:0 29 7] [268 0] 1 0
r 55.738107880 _7_ RTR  --- 619 tcp 1540 [13a 7 a 800] ------- [0:0 4:0 29 7] [267 0] 2 0
f 55.738107880 _7_ RTR  --- 619 tcp 1540 [13a 7 a 800] ------- [0:0 4:0 28 14] [267 0] 2 0
r 55.752154286 _14_ RTR  --- 618 tcp 1540 [13a e 7 800] ------- [0:0 4:0 28 14] [266 0] 3 0
f 55.752154286 _14_ RTR  --- 618 tcp 1540 [13a e 7 800] ------- [0:0 4:0 27 4] [266 0] 3 0
r 55.766221493 _14_ RTR  --- 619 tcp 1540 [13a e 7 800] ------- [0:0 4:0 28 14] [267 0] 3 0
f 55.766221493 _14_ RTR  --- 619 tcp 1540 [13a e 7 800] ------- [0:0 4:0 27 4] [267 0] 3 0
r 55.780266898 _4_ AGT  --- 618 tcp 1540 [13a 4 e 800] ------- [0:0 4:0 27 4] [266 0] 4 0
s 55.780266898 _4_ AGT  --- 621 ack 40 [0 0 0 0] ------- [4:0 0:0 32 0] [266 0] 0 0
r 55.780266898 _4_ RTR  --- 621 ack 40 [0 0 0 0] ------- [4:0 0:0 32 0] [266 0] 0 0
s 55.780266898 _4_ RTR  --- 621 ack 40 [0 0 0 0] ------- [4:0 0:0 30 14] [266 0] 0 0
r 55.782332302 _14_ RTR  --- 621 ack 40 [13a e 4 800] ------- [4:0 0:0 30 14] [266 0] 1 0
f 55.782332302 _14_ RTR  --- 621 ack 40 [13a e 4 800] ------- [4:0 0:0 29 7] [266 0] 1 0
r 55.796217706 _4_ AGT  --- 619 tcp 1540 [13a 4 e 800] ------- [0:0 4:0 27 4] [267 0] 4 0
s 55.796217706 _4_ AGT  --- 622 ack 40 [0 0 0 0] ------- [4:0 0:0 32 0] [267 0] 0 0
r 55.796217706 _4_ RTR  --- 622 ack 40 [0 0 0 0] ------- [4:0 0:0 32 0] [267 0] 0 0
s 55.796217706 _4_ RTR  --- 622 ack 40 [0 0 0 0] ------- [4:0 0:0 30 14] [267 0] 0 0
r 55.811231413 _7_ RTR  --- 620 tcp 1540 [13a 7 a 800] ------- [0:0 4:0 29 7] [268 0] 2 0
f 55.811231413 _7_ RTR  --- 620 tcp 1540 [13a 7 a 800] ------- [0:0 4:0 28 14] [268 0] 2 0
r 55.825077815 _14_ RTR  --- 620 tcp 1540 [13a e 7 800] ------- [0:0 4:0 28 14] [268 0] 3 0
f 55.825077815 _14_ RTR  --- 620 tcp 1540 [13a e 7 800] ------- [0:0 4:0 27 4] [268 0] 3 0
r 55.827233633 _14_ RTR  --- 622 ack 40 [13a e 4 800] ------- [4:0 0:0 30 14] [267 0] 1 0
f 55.827233633 _14_ RTR  --- 622 ack 40 [13a e 4 800] ------- [4:0 0:0 29 7] [267 0] 1 0
r 55.829540034 _7_ RTR  --- 621 ack 40 [13a 7 e 800] ------- [4:0 0:0 29 7] [266 0] 2 0
f 55.829540034 _7_ RTR  --- 621 ack 40 [13a 7 e 800] ------- [4:0 0:0 28 10] [266 0] 2 0
r 55.831486068 _10_ RTR  --- 621 ack 40 [13a a 7 800] ------- [4:0 0:0 28 10] [266 0] 3 0
f 55.831486068 _10_ RTR  --- 621 ack 40 [13a a 7 800] ------- [4:0 0:0 27 0] [266 0] 3 0
r 55.833332372 _0_ AGT  --- 621 ack 40 [13a 0 a 800] ------- [4:0 0:0 27 0] [266 0] 4 0
s 55.833332372 _0_ AGT  --- 623 tcp 1540 [0 0 0 0] ------- [0:0 4:0 32 0] [269 0] 0 0
r 55.833332372 _0_ RTR  --- 623 tcp 1540 [0 0 0 0] ------- [0:0 4:0 32 0] [269 0] 0 0
s 55.833332372 _0_ RTR  --- 623 tcp 1540 [0 0 0 0] ------- [0:0 4:0 30 10] [269 0] 0 0
r 55.847538676 _10_ RTR  --- 623 tcp 1540 [13a a 0 800] ------- [0:0 4:0 30 10] [269 0] 1 0
f 55.847538676 _10_ RTR  --- 623 tcp 1540 [13a a 0 800] ------- [0:0 4:0 29 7] [269 0] 1 0
r 55.861464710 _7_ RTR  --- 623 tcp 1540 [13a 7 a 800] ------- [0:0 4:0 29 7] [269 0] 2 0
f 55.861464710 _7_ RTR  --- 623 tcp 1540 [13a 7 a 800] ------- [0:0 4:0 28 14] [269 0] 2 0
r 55.875640643 _4_ AGT  --- 620 tcp 1540 [13a 4 e 800] ------- [0:0 4:0 27 4] [268 0] 4 0
s 55.875640643 _4_ AGT  --- 624 ack 40 [0 0 0 0] ------- [4:0 0:0 32 0] [268 0] 0 0
r 55.875640643 _4_ RTR  --- 624 ack 40 [0 0 0 0] ------- [4:0 0:0 32 0] [268 0] 0 0
s 55.875640643 _4_ RTR  --- 624 ack 40 [0 0 0 0] ------- [4:0 0:0 30 14] [268 0] 0 0
r 55.877687509 _7_ RTR  --- 622 ack 40 [13a 7 e 800] ------- [4:0 0:0 29 7] [267 0] 2 0
f 55.877687509 _7_ RTR  --- 622 ack 40 [13a 7 e 800] ------- [4:0 0:0 28 10] [267 0] 2 0
r 55.891593907 _14_ RTR  --- 623 tcp 1540 [13a e 7 800] ------- [0:0 4:0 28 14] [269 0] 3 0
f 55.891593907 _14_ RTR  --- 623 tcp 1540 [13a e 7 800] ------- [0:0 4:0 27 4] [269 0] 3 0
r 55.905479312 _4_ AGT  --- 623 tcp 1540 [13a 4 e 800] ------- [0:0 4:0 27 4] [269 0] 4 0
s 55.905479312 _4_ AGT  --- 625 ack 40 [0 0 0 0] ------- [4:0 0:0 32 0] [269 0] 0 0
r 55.905479312 _4_ RTR  --- 625 ack 40 [0 0 0 0] ------- [4:0 0:0 32 0] [269 0] 0 0
s 55.905479312 _4_ RTR  --- 625 ack 40 [0 0 0 0] ------- [4:0 0:0 30 14] [269 0] 0 0
r 55.907664717 _14_ RTR  --- 624 ack 40 [13a e 4 800] ------- [4:0 0:0 30 14] [268 0] 1 0
f 55.907664717 _14_ RTR  --- 624 ack 40 [13a e 4 800] ------- [4:0 0:0 29 7] [268 0] 1 0
r 55.909551113 _7_ RTR  --- 624 ack 40 [13a 7 e 800] ------- [4:0 0:0 29 7] [268 0] 2 0
f 55.909551113 _7_ RTR  --- 624 ack 40 [13a 7 e 800] ------- [4:0 0:0 28 10] [268 0] 2 0
r 55.911717148 _10_ RTR  --- 622 ack 40 [13a a 7 800] ------- [4:0 0:0 28 10] [267 0] 3 0
f 55.911717148 _10_ RTR  --- 622 ack 40 [13a a 7 800] ------- [4:0 0:0 27 0] [267 0] 3 0
r 55.913543449 _0_ AGT  --- 622 ack 40 [13a 0 a 800] ------- [4:0 0:0 27 0] [267 0] 4 0
s 55.913543449 _0_ AGT  --- 626 tcp 1540 [0 0 0 0] ------- [0:0 4:0 32 0] [270 0] 0 0
r 55.913543449 _0_ RTR  --- 626 tcp 1540 [0 0 0 0] ------- [0:0 4:0 32 0] [270 0] 0 0
s 55.913543449 _0_ RTR  --- 626 tcp 1540 [0 0 0 0] ------- [0:0 4:0 30 10] [270 0] 0 0
r 55.929569749 _10_ RTR  --- 626 tcp 1540 [13a a 0 800] ------- [0:0 4:0 30 10] [270 0] 1 0
f 55.929569749 _10_ RTR  --- 626 tcp 1540 [13a a 0 800] ------- [0:0 4:0 29 7] [270 0] 1 0
r 55.943475784 _7_ RTR  --- 626 tcp 1540 [13a 7 a 800] ------- [0:0 4:0 29 7] [270 0] 2 0
f 55.943475784 _7_ RTR  --- 626 tcp 1540 [13a 7 a 800] ------- [0:0 4:0 28 14] [270 0] 2 0
r 55.945321819 _10_ RTR  --- 624 ack 40 [13a a 7 800] ------- [4:0 0:0 28 10] [268 0] 3 0
f 55.945321819 _10_ RTR  --- 624 ack 40 [13a a 7 800] ------- [4:0 0:0 27 0] [268 0] 3 0
r 55.947368118 _0_ AGT  --- 624 ack 40 [13a 0 a 800] ------- [4:0 0:0 27 0] [268 0] 4 0
s 55.947368118 _0_ AGT  --- 627 tcp 1540 [0 0 0 0] ------- [0:0 4:0 32 0] [271 0] 0 0
r 55.947368118 _0_ RTR  --- 627 tcp 1540 [0 0 0 0] ------- [0:0 4:0 32 0] [271 0] 0 0
s 55.947368118 _0_ AGT  --- 628 tcp 1540 [0 0 0 0] ------- [0:0 4:0 32 0] [272 0] 0 0
r 55.947368118 _0_ RTR  --- 628 tcp 1540 [0 0 0 0] ------- [0:0 4:0 32 0] [272 0] 0 0
s 55.947368118 _0_ RTR  --- 627 tcp 1540 [0 0 0 0] ------- [0:0 4:0 30 10] [271 0] 0 0
s 55.947368118 _0_ RTR  --- 628 tcp 1540 [0 0 0 0] ------- [0:0 4:0 30 10] [272 0] 0 0
r 55.961534417 _10_ RTR  --- 627 tcp 1540 [13a a 0 800] ------- [0:0 4:0 30 10] [271 0] 1 0
f 55.961534417 _10_ RTR  --- 627 tcp 1540 [13a a 0 800] ------- [0:0 4:0 29 7] [271 0] 1 0
r 55.975791483 _14_ RTR  --- 626 tcp 1540 [13a e 7 800] ------- [0:0 4:0 28 14] [270 0] 3 0
f 55.975791483 _14_ RTR  --- 626 tcp 1540 [13a e 7 800] ------- [0:0 4:0 27 4] [270 0] 3 0
r 55.989736889 _4_ AGT  --- 626 tcp 1540 [13a 4 e 800] ------- [0:0 4:0 27 4] [270 0] 4 0
s 55.989736889 _4_ AGT  --- 629 ack 40 [0 0 0 0] ------- [4:0 0:0 32 0] [270 0] 0 0
r 55.989736889 _4_ RTR  --- 629 ack 40 [0 0 0 0] ------- [4:0 0:0 32 0] [270 0] 0 0
s 55.989736889 _4_ RTR  --- 629 ack 40 [0 0 0 0] ------- [4:0 0:0 30 14] [270 0] 0 0
r 56.003794527 _10_ RTR  --- 628 tcp 1540 [13a a 0 800] ------- [0:0 4:0 30 10] [272 0] 1 0
f 56.003794527 _10_ RTR  --- 628 tcp 1540 [13a a 0 800] ------- [0:0 4:0 29 7] [272 0] 1 0
r 56.017780563 _7_ RTR  --- 627 tcp 1540 [13a 7 a 800] ------- [0:0 4:0 29 7] [271 0] 2 0
f 56.017780563 _7_ RTR  --- 627 tcp 1540 [13a 7 a 800] ------- [0:0 4:0 28 14] [271 0] 2 0
r 56.031666952 _14_ RTR  --- 627 tcp 1540 [13a e 7 800] ------- [0:0 4:0 28 14] [271 0] 3 0
f 56.031666952 _14_ RTR  --- 627 tcp 1540 [13a e 7 800] ------- [0:0 4:0 27 4] [271 0] 3 0
r 56.045752358 _4_ AGT  --- 627 tcp 1540 [13a 4 e 800] ------- [0:0 4:0 27 4] [271 0] 4 0
s 56.045752358 _4_ AGT  --- 630 ack 40 [0 0 0 0] ------- [4:0 0:0 32 0] [271 0] 0 0
r 56.045752358 _4_ RTR  --- 630 ack 40 [0 0 0 0] ------- [4:0 0:0 32 0] [271 0] 0 0
s 56.045752358 _4_ RTR  --- 630 ack 40 [0 0 0 0] ------- [4:0 0:0 30 14] [271 0] 0 0
r 56.060444068 _7_ RTR  --- 628 tcp 1540 [13a 7 a 800] ------- [0:0 4:0 29 7] [272 0] 2 0
f 56.060444068 _7_ RTR  --- 628 tcp 1540 [13a 7 a 800] ------- [0:0 4:0 28 14] [272 0] 2 0
r 56.074650455 _14_ RTR  --- 628 tcp 1540 [13a e 7 800] ------- [0:0 4:0 28 14] [272 0] 3 0
f 56.074650455 _14_ RTR  --- 628 tcp 1540 [13a e 7 800] ------- [0:0 4:0 27 4] [272 0] 3 0
r 56.088615862 _4_ AGT  --- 628 tcp 1540 [13a 4 e 800] ------- [0:0 4:0 27 4] [272 0] 4 0
s 56.088615862 _4_ AGT  --- 631 ack 40 [0 0 0 0] ------- [4:0 0:0 32 0] [272 0] 0 0
r 56.088615862 _4_ RTR  --- 631 ack 40 [0 0 0 0] ------- [4:0 0:0 32 0] [272 0] 0 0
s 56.088615862 _4_ RTR  --- 631 ack 40 [0 0 0 0] ------- [4:0 0:0 30 14] [272 0] 0 0
r 56.094221269 _14_ RTR  --- 625 ack 40 [13a e 4 800] ------- [4:0 0:0 30 14] [269 0] 1 0
f 56.094221269 _14_ RTR  --- 625 ack 40 [13a e 4 800] ------- [4:0 0:0 29 7] [269 0] 1 0
r 56.096107654 _7_ RTR  --- 625 ack 40 [13a 7 e 800] ------- [4:0 0:0 29 7] [269 0] 2 0
f 56.096107654 _7_ RTR  --- 625 ack 40 [13a 7 e 800] ------- [4:0 0:0 28 10] [269 0] 2 0
r 56.098013691 _10_ RTR  --- 625 ack 40 [13a a 7 800] ------- [4:0 0:0 28 10] [269 0] 3 0
f 56.098013691 _10_ RTR  --- 625 ack 40 [13a a 7 800] ------- [4:0 0:0 27 0] [269 0] 3 0
r 56.100259982 _0_ AGT  --- 625 ack 40 [13a 0 a 800] ------- [4:0 0:0 27 0] [269 0] 4 0
s 56.100259982 _0_ AGT  --- 632 tcp 1540 [0 0 0 0] ------- [0:0 4:0 32 0] [273 0] 0 0
r 56.100259982 _0_ RTR  --- 632 tcp 1540 [0 0 0 0] ------- [0:0 4:0 32 0] [273 0] 0 0
s 56.100259982 _0_ RTR  --- 632 tcp 1540 [0 0 0 0] ------- [0:0 4:0 30 10] [273 0] 0 0
r 56.104016298 _14_ RTR  --- 629 ack 40 [13a e 4 800] ------- [4:0 0:0 30 14] [270 0] 1 0
f 56.104016298 _14_ RTR  --- 629 ack 40 [13a e 4 800] ------- [4:0 0:0 29 7] [270 0] 1 0
r 56.106047363 _7_ RTR  --- 629 ack 40 [13a 7 e 800] ------- [4:0 0:0 29 7] [270 0] 2 0
f 56.106047363 _7_ RTR  --- 629 ack 40 [13a 7 e 800] ------- [4:0 0:0 28 10] [270 0] 2 0
r 56.107973400 _10_ RTR  --- 629 ack 40 [13a a 7 800] ------- [4:0 0:0 28 10] [270 0] 3 0
f 56.107973400 _10_ RTR  --- 629 ack 40 [13a a 7 800] ------- [4:0 0:0 27 0] [270 0] 3 0
r 56.109959691 _0_ AGT  --- 629 ack 40 [13a 0 a 800] ------- [4:0 0:0 27 0] [270 0] 4 0
s 56.109959691 _0_ AGT  --- 633 tcp 1540 [0 0 0 0] ------- [0:0 4:0 32 0] [274 0] 0 0
r 56.109959691 _0_ RTR  --- 633 tcp 1540 [0 0 0 0] ------- [0:0 4:0 32 0] [274 0] 0 0
s 56.109959691 _0_ RTR  --- 633 tcp 1540 [0 0 0 0] ------- [0:0 4:0 30 10] [274 0] 0 0
r 56.112216007 _14_ RTR  --- 630 ack 40 [13a e 4 800] ------- [4:0 0:0 30 14] [271 0] 1 0
f 56.112216007 _14_ RTR  --- 630 ack 40 [13a e 4 800] ------- [4:0 0:0 29 7] [271 0] 1 0
r 56.114082391 _7_ RTR  --- 630 ack 40 [13a 7 e 800] ------- [4:0 0:0 29 7] [271 0] 2 0
f 56.114082391 _7_ RTR  --- 630 ack 40 [13a 7 e 800] ------- [4:0 0:0 28 10] [271 0] 2 0
r 56.116228429 _10_ RTR  --- 630 ack 40 [13a a 7 800] ------- [4:0 0:0 28 10] [271 0] 3 0
f 56.116228429 _10_ RTR  --- 630 ack 40 [13a a 7 800] ------- [4:0 0:0 27 0] [271 0] 3 0
r 56.118474719 _0_ AGT  --- 630 ack 40 [13a 0 a 800] ------- [4:0 0:0 27 0] [271 0] 4 0
s 56.118474719 _0_ AGT  --- 634 tcp 1540 [0 0 0 0] ------- [0:0 4:0 32 0] [275 0] 0 0
r 56.118474719 _0_ RTR  --- 634 tcp 1540 [0 0 0 0] ------- [0:0 4:0 32 0] [275 0] 0 0
s 56.118474719 _0_ RTR  --- 634 tcp 1540 [0 0 0 0] ------- [0:0 4:0 30 10] [275 0] 0 0
r 56.133801009 _10_ RTR  --- 632 tcp 1540 [13a a 0 800] ------- [0:0 4:0 30 10] [273 0] 1 0
f 56.133801009 _10_ RTR  --- 632 tcp 1540 [13a a 0 800] ------- [0:0 4:0 29 7] [273 0] 1 0
r 56.148087047 _7_ RTR  --- 632 tcp 1540 [13a 7 a 800] ------- [0:0 4:0 29 7] [273 0] 2 0
f 56.148087047 _7_ RTR  --- 632 tcp 1540 [13a 7 a 800] ------- [0:0 4:0 28 14] [273 0] 2 0
r 56.162293429 _14_ RTR  --- 632 tcp 1540 [13a e 7 800] ------- [0:0 4:0 28 14] [273 0] 3 0
f 56.162293429 _14_ RTR  --- 632 tcp 1540 [13a e 7 800] ------- [0:0 4:0 27 4] [273 0] 3 0
r 56.176518837 _4_ AGT  --- 632 tcp 1540 [13a 4 e 800] ------- [0:0 4:0 27 4] [273 0] 4 0
s 56.176518837 _4_ AGT  --- 635 ack 40 [0 0 0 0] ------- [4:0 0:0 32 0] [273 0] 0 0
r 56.176518837 _4_ RTR  --- 635 ack 40 [0 0 0 0] ------- [4:0 0:0 32 0] [273 0] 0 0
s 56.176518837 _4_ RTR  --- 635 ack 40 [0 0 0 0] ------- [4:0 0:0 30 14] [273 0] 0 0
r 56.190476464 _10_ RTR  --- 633 tcp 1540 [13a a 0 800] ------- [0:0 4:0 30 10] [274 0] 1 0
f 56.190476464 _10_ RTR  --- 633 tcp 1540 [13a a 0 800] ------- [0:0 4:0 29 7] [274 0] 1 0
r 56.204483512 _10_ RTR  --- 634 tcp 1540 [13a a 0 800] ------- [0:0 4:0 30 10] [275 0] 1 0
f 56.204483512 _10_ RTR  --- 634 tcp 1540 [13a a 0 800] ------- [0:0 4:0 29 7] [275 0] 1 0
r 56.218669551 _7_ RTR  --- 633 tcp 1540 [13a 7 a 800] ------- [0:0 4:0 29 7] [274 0] 2 0
f 56.218669551 _7_ RTR  --- 633 tcp 1540 [13a 7 a 800] ------- [0:0 4:0 28 14] [274 0] 2 0
r 56.232775929 _14_ RTR  --- 633 tcp 1540 [13a e 7 800] ------- [0:0 4:0 28 14] [274 0] 3 0
f 56.232775929 _14_ RTR  --- 633 tcp 1540 [13a e 7 800] ------- [0:0 4:0 27 4] [274 0] 3 0
r 56.246601337 _4_ AGT  --- 633 tcp 1540 [13a 4 e 800] ------- [0:0 4:0 27 4] [274 0] 4 0
s 56.246601337 _4_ AGT  --- 636 ack 40 [0 0 0 0] ------- [4:0 0:0 32 0] [274 0] 0 0
r 56.246601337 _4_ RTR  --- 636 ack 40 [0 0 0 0] ------- [4:0 0:0 32 0] [274 0] 0 0
s 56.246601337 _4_ RTR  --- 636 ack 40 [0 0 0 0] ------- [4:0 0:0 30 14] [274 0] 0 0
r 56.260993049 _7_ RTR  --- 634 tcp 1540 [13a 7 a 800] ------- [0:0 4:0 29 7] [275 0] 2 0
f 56.260993049 _7_ RTR  --- 634 tcp 1540 [13a 7 a 800] ------- [0:0 4:0 28 14] [275 0] 2 0
r 56.274879425 _14_ RTR  --- 634 tcp 1540 [13a e 7 800] ------- [0:0 4:0 28 14] [275 0] 3 0
f 56.274879425 _14_ RTR  --- 634 tcp 1540 [13a e 7 800] ------- [0:0 4:0 27 4] [275 0] 3 0
r 56.289024833 _4_ AGT  --- 634 tcp 1540 [13a 4 e 800] ------- [0:0 4:0 27 4] [275 0] 4 0
s 56.289024833 _4_ AGT  --- 637 ack 40 [0 0 0 0] ------- [4:0 0:0 32 0] [275 0] 0 0
r 56.289024833 _4_ RTR  --- 637 ack 40 [0 0 0 0] ------- [4:0 0:0 32 0] [275 0] 0 0
s 56.289024833 _4_ RTR  --- 637 ack 40 [0 0 0 0] ------- [4:0 0:0 30 14] [275 0] 0 0
r 56.295090242 _14_ RTR  --- 631 ack 40 [13a e 4 800] ------- [4:0 0:0 30 14] [272 0] 1 0
f 56.295090242 _14_ RTR  --- 631 ack 40 [13a e 4 800] ------- [4:0 0:0 29 7] [272 0] 1 0
r 56.297116615 _7_ RTR  --- 631 ack 40 [13a 7 e 800] ------- [4:0 0:0 29 7] [272 0] 2 0
f 56.297116615 _7_ RTR  --- 631 ack 40 [13a 7 e 800] ------- [4:0 0:0 28 10] [272 0] 2 0
r 56.299342655 _10_ RTR  --- 631 ack 40 [13a a 7 800] ------- [4:0 0:0 28 10] [272 0] 3 0
f 56.299342655 _10_ RTR  --- 631 ack 40 [13a a 7 800] ------- [4:0 0:0 27 0] [272 0] 3 0
r 56.301208937 _0_ AGT  --- 631 ack 40 [13a 0 a 800] ------- [4:0 0:0 27 0] [272 0] 4 0
s 56.301208937 _0_ AGT  --- 638 tcp 1540 [0 0 0 0] ------- [0:0 4:0 32 0] [276 0] 0 0
r 56.301208937 _0_ RTR  --- 638 tcp 1540 [0 0 0 0] ------- [0:0 4:0 32 0] [276 0] 0 0
s 56.301208937 _0_ RTR  --- 638 tcp 1540 [0 0 0 0] ------- [0:0 4:0 30 10] [276 0] 0 0
r 56.315875218 _10_ RTR  --- 638 tcp 1540 [13a a 0 800] ------- [0:0 4:0 30 10] [276 0] 1 0
f 56.315875218 _10_ RTR  --- 638 tcp 1540 [13a a 0 800] ------- [0:0 4:0 29 7] [276 0] 1 0
r 56.329741258 _7_ RTR  --- 638 tcp 1540 [13a 7 a 800] ------- [0:0 4:0 29 7] [276 0] 2 0
f 56.329741258 _7_ RTR  --- 638 tcp 1540 [13a 7 a 800] ------- [0:0 4:0 28 14] [276 0] 2 0
r 56.332071880 _14_ RTR  --- 635 ack 40 [13a e 4 800] ------- [4:0 0:0 30 14] [273 0] 1 0
f 56.332071880 _14_ RTR  --- 635 ack 40 [13a e 4 800] ------- [4:0 0:0 29 7] [273 0] 1 0
r 56.345968994 _14_ RTR  --- 638 tcp 1540 [13a e 7 800] ------- [0:0 4:0 28 14] [276 0] 3 0
f 56.345968994 _14_ RTR  --- 638 tcp 1540 [13a e 7 800] ------- [0:0 4:0 27 4] [276 0] 3 0
r 56.348004825 _14_ RTR  --- 636 ack 40 [13a e 4 800] ------- [4:0 0:0 30 14] [274 0] 1 0
f 56.348004825 _14_ RTR  --- 636 ack 40 [13a e 4 800] ------- [4:0 0:0 29 7] [274 0] 1 0
r 56.349911195 _7_ RTR  --- 635 ack 40 [13a 7 e 800] ------- [4:0 0:0 29 7] [273 0] 2 0
f 56.349911195 _7_ RTR  --- 635 ack 40 [13a 7 e 800] ------- [4:0 0:0 28 10] [273 0] 2 0
r 56.351937236 _10_ RTR  --- 635 ack 40 [13a a 7 800] ------- [4:0 0:0 28 10] [273 0] 3 0
f 56.351937236 _10_ RTR  --- 635 ack 40 [13a a 7 800] ------- [4:0 0:0 27 0] [273 0] 3 0
r 56.354303515 _0_ AGT  --- 635 ack 40 [13a 0 a 800] ------- [4:0 0:0 27 0] [273 0] 4 0
s 56.354303515 _0_ AGT  --- 639 tcp 1540 [0 0 0 0] ------- [0:0 4:0 32 0] [277 0] 0 0
r 56.354303515 _0_ RTR  --- 639 tcp 1540 [0 0 0 0] ------- [0:0 4:0 32 0] [277 0] 0 0
s 56.354303515 _0_ AGT  --- 640 tcp 1540 [0 0 0 0] ------- [0:0 4:0 32 0] [278 0] 0 0
r 56.354303515 _0_ RTR  --- 640 tcp 1540 [0 0 0 0] ------- [0:0 4:0 32 0] [278 0] 0 0
s 56.354303515 _0_ RTR  --- 639 tcp 1540 [0 0 0 0] ------- [0:0 4:0 30 10] [277 0] 0 0
s 56.354303515 _0_ RTR  --- 640 tcp 1540 [0 0 0 0] ------- [0:0 4:0 30 10] [278 0] 0 0
r 56.369129794 _10_ RTR  --- 639 tcp 1540 [13a a 0 800] ------- [0:0 4:0 30 10] [277 0] 1 0
f 56.369129794 _10_ RTR  --- 639 tcp 1540 [13a a 0 800] ------- [0:0 4:0 29 7] [277 0] 1 0
r 56.383155835 _7_ RTR  --- 639 tcp 1540 [13a 7 a 800] ------- [0:0 4:0 29 7] [277 0] 2 0
f 56.383155835 _7_ RTR  --- 639 tcp 1540 [13a 7 a 800] ------- [0:0 4:0 28 14] [277 0] 2 0
r 56.397002203 _14_ RTR  --- 639 tcp 1540 [13a e 7 800] ------- [0:0 4:0 28 14] [277 0] 3 0
f 56.397002203 _14_ RTR  --- 639 tcp 1540 [13a e 7 800] ------- [0:0 4:0 27 4] [277 0] 3 0
r 56.410907613 _4_ AGT  --- 638 tcp 1540 [13a 4 e 800] ------- [0:0 4:0 27 4] [276 0] 4 0
s 56.410907613 _4_ AGT  --- 641 ack 40 [0 0 0 0] ------- [4:0 0:0 32 0] [276 0] 0 0
r 56.410907613 _4_ RTR  --- 641 ack 40 [0 0 0 0] ------- [4:0 0:0 32 0] [276 0] 0 0
s 56.410907613 _4_ RTR  --- 641 ack 40 [0 0 0 0] ------- [4:0 0:0 30 14] [276 0] 0 0
r 56.412854449 _7_ RTR  --- 636 ack 40 [13a 7 e 800] ------- [4:0 0:0 29 7] [274 0] 2 0
f 56.412854449 _7_ RTR  --- 636 ack 40 [13a 7 e 800] ------- [4:0 0:0 28 10] [274 0] 2 0
r 56.426840648 _4_ AGT  --- 639 tcp 1540 [13a 4 e 800] ------- [0:0 4:0 27 4] [277 0] 4 0
s 56.426840648 _4_ AGT  --- 642 ack 40 [0 0 0 0] ------- [4:0 0:0 32 0] [277 0] 0 0
r 56.426840648 _4_ RTR  --- 642 ack 40 [0 0 0 0] ------- [4:0 0:0 32 0] [277 0] 0 0
s 56.426840648 _4_ RTR  --- 642 ack 40 [0 0 0 0] ------- [4:0 0:0 30 14] [277 0] 0 0
r 56.440778260 _10_ RTR  --- 640 tcp 1540 [13a a 0 800] ------- [0:0 4:0 30 10] [278 0] 1 0
f 56.440778260 _10_ RTR  --- 640 tcp 1540 [13a a 0 800] ------- [0:0 4:0 29 7] [278 0] 1 0
r 56.442874979 _10_ RTR  --- 636 ack 40 [13a a 7 800] ------- [4:0 0:0 28 10] [274 0] 3 0
f 56.442874979 _10_ RTR  --- 636 ack 40 [13a a 7 800] ------- [4:0 0:0 27 0] [274 0] 3 0
r 56.456781021 _7_ RTR  --- 640 tcp 1540 [13a 7 a 800] ------- [0:0 4:0 29 7] [278 0] 2 0
f 56.456781021 _7_ RTR  --- 640 tcp 1540 [13a 7 a 800] ------- [0:0 4:0 28 14] [278 0] 2 0
r 56.470987385 _14_ RTR  --- 640 tcp 1540 [13a e 7 800] ------- [0:0 4:0 28 14] [278 0] 3 0
f 56.470987385 _14_ RTR  --- 640 tcp 1540 [13a e 7 800] ------- [0:0 4:0 27 4] [278 0] 3 0
r 56.472903220 _14_ RTR  --- 637 ack 40 [13a e 4 800] ------- [4:0 0:0 30 14] [275 0] 1 0
f 56.472903220 _14_ RTR  --- 637 ack 40 [13a e 4 800] ------- [4:0 0:0 29 7] [275 0] 1 0
r 56.474949100 _14_ RTR  --- 641 ack 40 [13a e 4 800] ------- [4:0 0:0 30 14] [276 0] 1 0
f 56.474949100 _14_ RTR  --- 641 ack 40 [13a e 4 800] ------- [4:0 0:0 29 7] [276 0] 1 0
r 56.488894511 _4_ AGT  --- 640 tcp 1540 [13a 4 e 800] ------- [0:0 4:0 27 4] [278 0] 4 0
s 56.488894511 _4_ AGT  --- 643 ack 40 [0 0 0 0] ------- [4:0 0:0 32 0] [278 0] 0 0
r 56.488894511 _4_ RTR  --- 643 ack 40 [0 0 0 0] ------- [4:0 0:0 32 0] [278 0] 0 0
s 56.488894511 _4_ RTR  --- 643 ack 40 [0 0 0 0] ------- [4:0 0:0 30 14] [278 0] 0 0
r 56.490739921 _14_ RTR  --- 642 ack 40 [13a e 4 800] ------- [4:0 0:0 30 14] [277 0] 1 0
f 56.490739921 _14_ RTR  --- 642 ack 40 [13a e 4 800] ------- [4:0 0:0 29 7] [277 0] 1 0
r 56.492625802 _14_ RTR  --- 643 ack 40 [13a e 4 800] ------- [4:0 0:0 30 14] [278 0] 1 0
f 56.492625802 _14_ RTR  --- 643 ack 40 [13a e 4 800] ------- [4:0 0:0 29 7] [278 0] 1 0
r 56.494712164 _7_ RTR  --- 637 ack 40 [13a 7 e 800] ------- [4:0 0:0 29 7] [275 0] 2 0
f 56.494712164 _7_ RTR  --- 637 ack 40 [13a 7 e 800] ------- [4:0 0:0 28 10] [275 0] 2 0
r 56.496579313 _7_ RTR  --- 641 ack 40 [13a 7 e 800] ------- [4:0 0:0 29 7] [276 0] 2 0
f 56.496579313 _7_ RTR  --- 641 ack 40 [13a 7 e 800] ------- [4:0 0:0 28 10] [276 0] 2 0
r 56.498535999 _0_ AGT  --- 636 ack 40 [13a 0 a 800] ------- [4:0 0:0 27 0] [274 0] 4 0
s 56.498535999 _0_ AGT  --- 644 tcp 1540 [0 0 0 0] ------- [0:0 4:0 32 0] [279 0] 0 0
r 56.498535999 _0_ RTR  --- 644 tcp 1540 [0 0 0 0] ------- [0:0 4:0 32 0] [279 0] 0 0
s 56.498535999 _0_ RTR  --- 644 tcp 1540 [0 0 0 0] ------- [0:0 4:0 30 10] [279 0] 0 0
r 56.512382271 _10_ RTR  --- 644 tcp 1540 [13a a 0 800] ------- [0:0 4:0 30 10] [279 0] 1 0
f 56.512382271 _10_ RTR  --- 644 tcp 1540 [13a a 0 800] ------- [0:0 4:0 29 7] [279 0] 1 0
r 56.514458991 _10_ RTR  --- 637 ack 40 [13a a 7 800] ------- [4:0 0:0 28 10] [275 0] 3 0
f 56.514458991 _10_ RTR  --- 637 ack 40 [13a a 7 800] ------- [4:0 0:0 27 0] [275 0] 3 0
r 56.528485034 _7_ RTR  --- 644 tcp 1540 [13a 7 a 800] ------- [0:0 4:0 29 7] [279 0] 2 0
f 56.528485034 _7_ RTR  --- 644 tcp 1540 [13a 7 a 800] ------- [0:0 4:0 28 14] [279 0] 2 0
r 56.530501914 _7_ RTR  --- 642 ack 40 [13a 7 e 800] ------- [4:0 0:0 29 7] [277 0] 2 0
f 56.530501914 _7_ RTR  --- 642 ack 40 [13a 7 e 800] ------- [4:0 0:0 28 10] [277 0] 2 0
r 56.532347958 _10_ RTR  --- 641 ack 40 [13a a 7 800] ------- [4:0 0:0 28 10] [276 0] 3 0
f 56.532347958 _10_ RTR  --- 641 ack 40 [13a a 7 800] ------- [4:0 0:0 27 0] [276 0] 3 0
r 56.534414228 _0_ AGT  --- 637 ack 40 [13a 0 a 800] ------- [4:0 0:0 27 0] [275 0] 4 0
s 56.534414228 _0_ AGT  --- 645 tcp 1540 [0 0 0 0] ------- [0:0 4:0 32 0] [280 0] 0 0
r 56.534414228 _0_ RTR  --- 645 tcp 1540 [0 0 0 0] ------- [0:0 4:0 32 0] [280 0] 0 0
s 56.534414228 _0_ RTR  --- 645 tcp 1540 [0 0 0 0] ------- [0:0 4:0 30 10] [280 0] 0 0
r 56.548240497 _10_ RTR  --- 645 tcp 1540 [13a a 0 800] ------- [0:0 4:0 30 10] [280 0] 1 0
f 56.548240497 _10_ RTR  --- 645 tcp 1540 [13a a 0 800] ------- [0:0 4:0 29 7] [280 0] 1 0
r 56.562277533 _14_ RTR  --- 644 tcp 1540 [13a e 7 800] ------- [0:0 4:0 28 14] [279 0] 3 0
f 56.562277533 _14_ RTR  --- 644 tcp 1540 [13a e 7 800] ------- [0:0 4:0 27 4] [279 0] 3 0
r 56.564224363 _10_ RTR  --- 642 ack 40 [13a a 7 800] ------- [4:0 0:0 28 10] [277 0] 3 0
f 56.564224363 _10_ RTR  --- 642 ack 40 [13a a 7 800] ------- [4:0 0:0 27 0] [277 0] 3 0
r 56.566190631 _0_ AGT  --- 641 ack 40 [13a 0 a 800] ------- [4:0 0:0 27 0] [276 0] 4 0
s 56.566190631 _0_ AGT  --- 646 tcp 1540 [0 0 0 0] ------- [0:0 4:0 32 0] [281 0] 0 0
r 56.566190631 _0_ RTR  --- 646 tcp 1540 [0 0 0 0] ------- [0:0 4:0 32 0] [281 0] 0 0
s 56.566190631 _0_ RTR  --- 646 tcp 1540 [0 0 0 0] ------- [0:0 4:0 30 10] [281 0] 0 0
r 56.580037431 _7_ RTR  --- 645 tcp 1540 [13a 7 a 800] ------- [0:0 4:0 29 7] [280 0] 2 0
f 56.580037431 _7_ RTR  --- 645 tcp 1540 [13a 7 a 800] ------- [0:0 4:0 28 14] [280 0] 2 0
r 56.582034308 _7_ RTR  --- 643 ack 40 [13a 7 e 800] ------- [4:0 0:0 29 7] [278 0] 2 0
f 56.582034308 _7_ RTR  --- 643 ack 40 [13a 7 e 800] ------- [4:0 0:0 28 10] [278 0] 2 0