M 1.00000 0 (285.00, 949.00, 0.00), (246.00, 259.00), 4.00
M 1.00000 1 (58.00, 440.00, 0.00), (471.00, 742.00), 0.00
M 1.00000 2 (621.00, 21.00, 0.00), (81.00, 261.00), 9.00
M 1.00000 3 (483.00, 804.00, 0.00), (370.00, 631.00), 6.00
M 1.00000 4 (931.00, 422.00, 0.00), (312.00, 382.00), 1.00
M 1.00000 5 (137.00, 707.00, 0.00), (814.00, 383.00), 7.00
M 1.00000 6 (159.00, 190.00, 0.00), (900.00, 165.00), 5.00
M 1.00000 7 (355.00, 357.00, 0.00), (515.00, 372.00), 5.00
M 1.00000 8 (145.00, 494.00, 0.00), (65.00, 55.00), 2.00
M 1.00000 9 (983.00, 460.00, 0.00), (759.00, 672.00), 4.00
M 1.00000 10 (373.00, 421.00, 0.00), (445.00, 992.00), 2.00
M 1.00000 11 (459.00, 439.00, 0.00), (947.00, 425.00), 8.00
M 1.00000 12 (748.00, 739.00, 0.00), (311.00, 754.00), 9.00
M 1.00000 13 (38.00, 821.00, 0.00), (180.00, 143.00), 2.00
M 1.00000 14 (942.00, 844.00, 0.00), (656.00, 291.00), 8.00
M 1.00000 15 (244.00, 514.00, 0.00), (315.00, 889.00), 6.00
M 1.00000 16 (468.00, 705.00, 0.00), (752.00, 559.00), 7.00
M 1.00000 17 (709.00, 820.00, 0.00), (613.00, 475.00), 5.00
M 1.00000 18 (943.00, 185.00, 0.00), (213.00, 298.00), 7.00
M 1.00000 19 (588.00, 350.00, 0.00), (697.00, 894.00), 2.00
s 1.000000000 _0_ AGT  --- 0 tcp 40 [0 0 0 0] ------- [0:0 4:0 32 0] [0 0] 0 0
r 1.000000000 _0_ RTR  --- 0 tcp 40 [0 0 0 0] ------- [0:0 4:0 32 0] [0 0] 0 0
s 1.000000000 _0_ RTR  --- 0 AODV 48 [0 0 0 0] ------- [0:255 -1:255 30 0] [0x2 1 1 [4 0] [0 4]] (REQUEST)
r 1.000988818 _3_ RTR  --- 0 AODV 48 [0 ffffffff 0 800] ------- [0:255 -1:255 30 0] [0x2 1 1 [4 0] [0 4]] (REQUEST)
s 1.001870045 _3_ RTR  --- 0 AODV 48 [0 ffffffff 0 800] ------- [3:255 -1:255 29 0] [0x2 2 1 [4 0] [0 4]] (REQUEST)
r 1.003138379 _16_ RTR  --- 0 AODV 48 [0 ffffffff 3 800] ------- [3:255 -1:255 29 0] [0x2 2 1 [4 0] [0 4]] (REQUEST)
r 1.003138800 _17_ RTR  --- 0 AODV 48 [0 ffffffff 3 800] ------- [3:255 -1:255 29 0] [0x2 2 1 [4 0] [0 4]] (REQUEST)
r 1.003138863 _0_ RTR  --- 0 AODV 48 [0 ffffffff 3 800] ------- [3:255 -1:255 29 0] [0x2 2 1 [4 0] [0 4]] (REQUEST)
s 1.006267996 _16_ RTR  --- 0 AODV 48 [0 ffffffff 3 800] ------- [16:255 -1:255 28 0] [0x2 3 1 [4 0] [0 4]] (REQUEST)
r 1.007456330 _3_ RTR  --- 0 AODV 48 [0 ffffffff 10 800] ------- [16:255 -1:255 28 0] [0x2 3 1 [4 0] [0 4]] (REQUEST)
s 1.011303561 _17_ RTR  --- 0 AODV 48 [0 ffffffff 3 800] ------- [17:255 -1:255 28 0] [0x2 3 1 [4 0] [0 4]] (REQUEST)
r 1.012511860 _12_ RTR  --- 0 AODV 48 [0 ffffffff 11 800] ------- [17:255 -1:255 28 0] [0x2 3 1 [4 0] [0 4]] (REQUEST)
r 1.012512316 _3_ RTR  --- 0 AODV 48 [0 ffffffff 11 800] ------- [17:255 -1:255 28 0] [0x2 3 1 [4 0] [0 4]] (REQUEST)
r 1.012512341 _14_ RTR  --- 0 AODV 48 [0 ffffffff 11 800] ------- [17:255 -1:255 28 0] [0x2 3 1 [4 0] [0 4]] (REQUEST)
s 1.012940287 _14_ RTR  --- 0 AODV 48 [0 ffffffff 11 800] ------- [14:255 -1:255 27 0] [0x2 4 1 [4 0] [0 4]] (REQUEST)
r 1.014049022 _12_ RTR  --- 0 AODV 48 [0 ffffffff e 800] ------- [14:255 -1:255 27 0] [0x2 4 1 [4 0] [0 4]] (REQUEST)
r 1.014049067 _17_ RTR  --- 0 AODV 48 [0 ffffffff e 800] ------- [14:255 -1:255 27 0] [0x2 4 1 [4 0] [0 4]] (REQUEST)
s 1.014153314 _12_ RTR  --- 0 AODV 48 [0 ffffffff 11 800] ------- [12:255 -1:255 27 0] [0x2 4 1 [4 0] [0 4]] (REQUEST)
r 1.015341613 _17_ RTR  --- 0 AODV 48 [0 ffffffff c 800] ------- [12:255 -1:255 27 0] [0x2 4 1 [4 0] [0 4]] (REQUEST)
r 1.015342049 _14_ RTR  --- 0 AODV 48 [0 ffffffff c 800] ------- [12:255 -1:255 27 0] [0x2 4 1 [4 0] [0 4]] (REQUEST)
s 3.000000000 _0_ RTR  --- 0 AODV 48 [0 0 0 0] ------- [0:255 -1:255 30 0] [0x2 1 2 [4 0] [0 6]] (REQUEST)
r 3.001428806 _3_ RTR  --- 0 AODV 48 [0 ffffffff 0 800] ------- [0:255 -1:255 30 0] [0x2 1 2 [4 0] [0 6]] (REQUEST)
s 3.009499091 _3_ RTR  --- 0 AODV 48 [0 ffffffff 0 800] ------- [3:255 -1:255 29 0] [0x2 2 2 [4 0] [0 6]] (REQUEST)
r 3.010647409 _16_ RTR  --- 0 AODV 48 [0 ffffffff 3 800] ------- [3:255 -1:255 29 0] [0x2 2 2 [4 0] [0 6]] (REQUEST)
r 3.010647860 _17_ RTR  --- 0 AODV 48 [0 ffffffff 3 800] ------- [3:255 -1:255 29 0] [0x2 2 2 [4 0] [0 6]] (REQUEST)
r 3.010647897 _0_ RTR  --- 0 AODV 48 [0 ffffffff 3 800] ------- [3:255 -1:255 29 0] [0x2 2 2 [4 0] [0 6]] (REQUEST)
s 3.014734266 _16_ RTR  --- 0 AODV 48 [0 ffffffff 3 800] ------- [16:255 -1:255 28 0] [0x2 3 2 [4 0] [0 6]] (REQUEST)
s 3.015834348 _17_ RTR  --- 0 AODV 48 [0 ffffffff 3 800] ------- [17:255 -1:255 28 0] [0x2 3 2 [4 0] [0 6]] (REQUEST)
r 3.016122584 _3_ RTR  --- 0 AODV 48 [0 ffffffff 10 800] ------- [16:255 -1:255 28 0] [0x2 3 2 [4 0] [0 6]] (REQUEST)
r 3.017565354 _12_ RTR  --- 0 AODV 48 [0 ffffffff 11 800] ------- [17:255 -1:255 28 0] [0x2 3 2 [4 0] [0 6]] (REQUEST)
r 3.017565870 _14_ RTR  --- 0 AODV 48 [0 ffffffff 11 800] ------- [17:255 -1:255 28 0] [0x2 3 2 [4 0] [0 6]] (REQUEST)
r 3.017565874 _3_ RTR  --- 0 AODV 48 [0 ffffffff 11 800] ------- [17:255 -1:255 28 0] [0x2 3 2 [4 0] [0 6]] (REQUEST)
s 3.019736949 _12_ RTR  --- 0 AODV 48 [0 ffffffff 11 800] ------- [12:255 -1:255 27 0] [0x2 4 2 [4 0] [0 6]] (REQUEST)
s 3.019978126 _14_ RTR  --- 0 AODV 48 [0 ffffffff 11 800] ------- [14:255 -1:255 27 0] [0x2 4 2 [4 0] [0 6]] (REQUEST)
r 3.020725197 _17_ RTR  --- 0 AODV 48 [0 ffffffff c 800] ------- [12:255 -1:255 27 0] [0x2 4 2 [4 0] [0 6]] (REQUEST)
r 3.020725694 _14_ RTR  --- 0 AODV 48 [0 ffffffff c 800] ------- [12:255 -1:255 27 0] [0x2 4 2 [4 0] [0 6]] (REQUEST)
r 3.021924440 _12_ RTR  --- 0 AODV 48 [0 ffffffff e 800] ------- [14:255 -1:255 27 0] [0x2 4 2 [4 0] [0 6]] (REQUEST)
r 3.021924458 _17_ RTR  --- 0 AODV 48 [0 ffffffff e 800] ------- [14:255 -1:255 27 0] [0x2 4 2 [4 0] [0 6]] (REQUEST)
s 4.000000000 _0_ AGT  --- 1 tcp 40 [0 0 0 0] ------- [0:0 4:0 32 0] [0 0] 0 0
r 4.000000000 _0_ RTR  --- 1 tcp 40 [0 0 0 0] ------- [0:0 4:0 32 0] [0 0] 0 0
s 7.000000000 _0_ RTR  --- 0 AODV 48 [0 0 0 0] ------- [0:255 -1:255 30 0] [0x2 1 3 [4 0] [0 8]] (REQUEST)
r 7.001028783 _3_ RTR  --- 0 AODV 48 [0 ffffffff 0 800] ------- [0:255 -1:255 30 0] [0x2 1 3 [4 0] [0 8]] (REQUEST)
s 7.005070858 _3_ RTR  --- 0 AODV 48 [0 ffffffff 0 800] ------- [3:255 -1:255 29 0] [0x2 2 3 [4 0] [0 8]] (REQUEST)
r 7.006119183 _16_ RTR  --- 0 AODV 48 [0 ffffffff 3 800] ------- [3:255 -1:255 29 0] [0x2 2 3 [4 0] [0 8]] (REQUEST)
r 7.006119635 _12_ RTR  --- 0 AODV 48 [0 ffffffff 3 800] ------- [3:255 -1:255 29 0] [0x2 2 3 [4 0] [0 8]] (REQUEST)
r 7.006119641 _0_ RTR  --- 0 AODV 48 [0 ffffffff 3 800] ------- [3:255 -1:255 29 0] [0x2 2 3 [4 0] [0 8]] (REQUEST)
r 7.006119652 _17_ RTR  --- 0 AODV 48 [0 ffffffff 3 800] ------- [3:255 -1:255 29 0] [0x2 2 3 [4 0] [0 8]] (REQUEST)
s 7.007239965 _17_ RTR  --- 0 AODV 48 [0 ffffffff 3 800] ------- [17:255 -1:255 28 0] [0x2 3 3 [4 0] [0 8]] (REQUEST)
r 7.008248134 _12_ RTR  --- 0 AODV 48 [0 ffffffff 11 800] ------- [17:255 -1:255 28 0] [0x2 3 3 [4 0] [0 8]] (REQUEST)
r 7.008248696 _14_ RTR  --- 0 AODV 48 [0 ffffffff 11 800] ------- [17:255 -1:255 28 0] [0x2 3 3 [4 0] [0 8]] (REQUEST)
r 7.008248706 _16_ RTR  --- 0 AODV 48 [0 ffffffff 11 800] ------- [17:255 -1:255 28 0] [0x2 3 3 [4 0] [0 8]] (REQUEST)
r 7.008248760 _3_ RTR  --- 0 AODV 48 [0 ffffffff 11 800] ------- [17:255 -1:255 28 0] [0x2 3 3 [4 0] [0 8]] (REQUEST)
s 7.014198970 _14_ RTR  --- 0 AODV 48 [0 ffffffff 11 800] ------- [14:255 -1:255 27 0] [0x2 4 3 [4 0] [0 8]] (REQUEST)
s 7.015033113 _12_ RTR  --- 0 AODV 48 [0 ffffffff 3 800] ------- [12:255 -1:255 28 0] [0x2 3 3 [4 0] [0 8]] (REQUEST)
s 7.015581833 _16_ RTR  --- 0 AODV 48 [0 ffffffff 3 800] ------- [16:255 -1:255 28 0] [0x2 3 3 [4 0] [0 8]] (REQUEST)
r 7.015647701 _17_ RTR  --- 0 AODV 48 [0 ffffffff e 800] ------- [14:255 -1:255 27 0] [0x2 4 3 [4 0] [0 8]] (REQUEST)
r 7.015647750 _12_ RTR  --- 0 AODV 48 [0 ffffffff e 800] ------- [14:255 -1:255 27 0] [0x2 4 3 [4 0] [0 8]] (REQUEST)
r 7.016825919 _17_ RTR  --- 0 AODV 48 [0 ffffffff c 800] ------- [12:255 -1:255 28 0] [0x2 3 3 [4 0] [0 8]] (REQUEST)
r 7.016826404 _16_ RTR  --- 0 AODV 48 [0 ffffffff c 800] ------- [12:255 -1:255 28 0] [0x2 3 3 [4 0] [0 8]] (REQUEST)
r 7.016826526 _3_ RTR  --- 0 AODV 48 [0 ffffffff c 800] ------- [12:255 -1:255 28 0] [0x2 3 3 [4 0] [0 8]] (REQUEST)
r 7.016826530 _14_ RTR  --- 0 AODV 48 [0 ffffffff c 800] ------- [12:255 -1:255 28 0] [0x2 3 3 [4 0] [0 8]] (REQUEST)
r 7.017904730 _3_ RTR  --- 0 AODV 48 [0 ffffffff 10 800] ------- [16:255 -1:255 28 0] [0x2 3 3 [4 0] [0 8]] (REQUEST)
r 7.017905059 _12_ RTR  --- 0 AODV 48 [0 ffffffff 10 800] ------- [16:255 -1:255 28 0] [0x2 3 3 [4 0] [0 8]] (REQUEST)
r 7.017905144 _17_ RTR  --- 0 AODV 48 [0 ffffffff 10 800] ------- [16:255 -1:255 28 0] [0x2 3 3 [4 0] [0 8]] (REQUEST)
r 7.017905231 _11_ RTR  --- 0 AODV 48 [0 ffffffff 10 800] ------- [16:255 -1:255 28 0] [0x2 3 3 [4 0] [0 8]] (REQUEST)
s 7.026671788 _11_ RTR  --- 0 AODV 48 [0 ffffffff 10 800] ------- [11:255 -1:255 27 0] [0x2 4 3 [4 0] [0 8]] (REQUEST)
r 7.027940163 _19_ RTR  --- 0 AODV 48 [0 ffffffff b 800] ------- [11:255 -1:255 27 0] [0x2 4 3 [4 0] [0 8]] (REQUEST)
r 7.027940231 _10_ RTR  --- 0 AODV 48 [0 ffffffff b 800] ------- [11:255 -1:255 27 0] [0x2 4 3 [4 0] [0 8]] (REQUEST)
r 7.027940271 _7_ RTR  --- 0 AODV 48 [0 ffffffff b 800] ------- [11:255 -1:255 27 0] [0x2 4 3 [4 0] [0 8]] (REQUEST)
r 7.027940615 _16_ RTR  --- 0 AODV 48 [0 ffffffff b 800] ------- [11:255 -1:255 27 0] [0x2 4 3 [4 0] [0 8]] (REQUEST)
s 7.028215805 _10_ RTR  --- 0 AODV 48 [0 ffffffff b 800] ------- [10:255 -1:255 26 0] [0x2 5 3 [4 0] [0 8]] (REQUEST)
r 7.029164052 _7_ RTR  --- 0 AODV 48 [0 ffffffff a 800] ------- [10:255 -1:255 26 0] [0x2 5 3 [4 0] [0 8]] (REQUEST)
r 7.029164248 _11_ RTR  --- 0 AODV 48 [0 ffffffff a 800] ------- [10:255 -1:255 26 0] [0x2 5 3 [4 0] [0 8]] (REQUEST)
r 7.029164372 _15_ RTR  --- 0 AODV 48 [0 ffffffff a 800] ------- [10:255 -1:255 26 0] [0x2 5 3 [4 0] [0 8]] (REQUEST)
r 7.029164563 _19_ RTR  --- 0 AODV 48 [0 ffffffff a 800] ------- [10:255 -1:255 26 0] [0x2 5 3 [4 0] [0 8]] (REQUEST)
r 7.029164595 _8_ RTR  --- 0 AODV 48 [0 ffffffff a 800] ------- [10:255 -1:255 26 0] [0x2 5 3 [4 0] [0 8]] (REQUEST)
s 7.031213441 _7_ RTR  --- 0 AODV 48 [0 ffffffff b 800] ------- [7:255 -1:255 26 0] [0x2 5 3 [4 0] [0 8]] (REQUEST)
r 7.032181687 _10_ RTR  --- 0 AODV 48 [0 ffffffff 7 800] ------- [7:255 -1:255 26 0] [0x2 5 3 [4 0] [0 8]] (REQUEST)
r 7.032181924 _11_ RTR  --- 0 AODV 48 [0 ffffffff 7 800] ------- [7:255 -1:255 26 0] [0x2 5 3 [4 0] [0 8]] (REQUEST)
r 7.032182125 _19_ RTR  --- 0 AODV 48 [0 ffffffff 7 800] ------- [7:255 -1:255 26 0] [0x2 5 3 [4 0] [0 8]] (REQUEST)
r 7.032182216 _15_ RTR  --- 0 AODV 48 [0 ffffffff 7 800] ------- [7:255 -1:255 26 0] [0x2 5 3 [4 0] [0 8]] (REQUEST)
s 7.032197036 _19_ RTR  --- 0 AODV 48 [0 ffffffff b 800] ------- [19:255 -1:255 26 0] [0x2 5 3 [4 0] [0 8]] (REQUEST)
r 7.033385411 _11_ RTR  --- 0 AODV 48 [0 ffffffff 13 800] ------- [19:255 -1:255 26 0] [0x2 5 3 [4 0] [0 8]] (REQUEST)
r 7.033385720 _7_ RTR  --- 0 AODV 48 [0 ffffffff 13 800] ------- [19:255 -1:255 26 0] [0x2 5 3 [4 0] [0 8]] (REQUEST)
r 7.033385794 _10_ RTR  --- 0 AODV 48 [0 ffffffff 13 800] ------- [19:255 -1:255 26 0] [0x2 5 3 [4 0] [0 8]] (REQUEST)
s 7.036891552 _8_ RTR  --- 0 AODV 48 [0 ffffffff a 800] ------- [8:255 -1:255 25 0] [0x2 6 3 [4 0] [0 8]] (REQUEST)
r 7.038139868 _1_ RTR  --- 0 AODV 48 [0 ffffffff 8 800] ------- [8:255 -1:255 25 0] [0x2 6 3 [4 0] [0 8]] (REQUEST)
r 7.038139976 _15_ RTR  --- 0 AODV 48 [0 ffffffff 8 800] ------- [8:255 -1:255 25 0] [0x2 6 3 [4 0] [0 8]] (REQUEST)
r 7.038140249 _5_ RTR  --- 0 AODV 48 [0 ffffffff 8 800] ------- [8:255 -1:255 25 0] [0x2 6 3 [4 0] [0 8]] (REQUEST)
r 7.038140342 _10_ RTR  --- 0 AODV 48 [0 ffffffff 8 800] ------- [8:255 -1:255 25 0] [0x2 6 3 [4 0] [0 8]] (REQUEST)
s 7.038632534 _15_ RTR  --- 0 AODV 48 [0 ffffffff a 800] ------- [15:255 -1:255 25 0] [0x2 6 3 [4 0] [0 8]] (REQUEST)
s 7.038641202 _1_ RTR  --- 0 AODV 48 [0 ffffffff 8 800] ------- [1:255 -1:255 24 0] [0x2 7 3 [4 0] [0 8]] (REQUEST)
r 7.039689518 _8_ RTR  --- 0 AODV 48 [0 ffffffff 1 800] ------- [1:255 -1:255 24 0] [0x2 7 3 [4 0] [0 8]] (REQUEST)
r 7.039689941 _15_ RTR  --- 0 AODV 48 [0 ffffffff 1 800] ------- [1:255 -1:255 24 0] [0x2 7 3 [4 0] [0 8]] (REQUEST)
r 7.040688365 _8_ RTR  --- 0 AODV 48 [0 ffffffff f 800] ------- [15:255 -1:255 25 0] [0x2 6 3 [4 0] [0 8]] (REQUEST)
r 7.040688469 _5_ RTR  --- 0 AODV 48 [0 ffffffff f 800] ------- [15:255 -1:255 25 0] [0x2 6 3 [4 0] [0 8]] (REQUEST)
r 7.040688508 _10_ RTR  --- 0 AODV 48 [0 ffffffff f 800] ------- [15:255 -1:255 25 0] [0x2 6 3 [4 0] [0 8]] (REQUEST)
r 7.040688680 _1_ RTR  --- 0 AODV 48 [0 ffffffff f 800] ------- [15:255 -1:255 25 0] [0x2 6 3 [4 0] [0 8]] (REQUEST)
r 7.040688716 _7_ RTR  --- 0 AODV 48 [0 ffffffff f 800] ------- [15:255 -1:255 25 0] [0x2 6 3 [4 0] [0 8]] (REQUEST)
s 7.046791304 _5_ RTR  --- 0 AODV 48 [0 ffffffff 8 800] ------- [5:255 -1:255 24 0] [0x2 7 3 [4 0] [0 8]] (REQUEST)
r 7.047939832 _15_ RTR  --- 0 AODV 48 [0 ffffffff 5 800] ------- [5:255 -1:255 24 0] [0x2 7 3 [4 0] [0 8]] (REQUEST)
r 7.047939906 _13_ RTR  --- 0 AODV 48 [0 ffffffff 5 800] ------- [5:255 -1:255 24 0] [0x2 7 3 [4 0] [0 8]] (REQUEST)
r 7.047940001 _8_ RTR  --- 0 AODV 48 [0 ffffffff 5 800] ------- [5:255 -1:255 24 0] [0x2 7 3 [4 0] [0 8]] (REQUEST)
s 7.055220324 _13_ RTR  --- 0 AODV 48 [0 ffffffff 5 800] ------- [13:255 -1:255 23 0] [0x2 8 3 [4 0] [0 8]] (REQUEST)
r 7.056768927 _5_ RTR  --- 0 AODV 48 [0 ffffffff d 800] ------- [13:255 -1:255 23 0] [0x2 8 3 [4 0] [0 8]] (REQUEST)
s 10.000000000 _0_ AGT  --- 2 tcp 40 [0 0 0 0] ------- [0:0 4:0 32 0] [0 0] 0 0
r 10.000000000 _0_ RTR  --- 2 tcp 40 [0 0 0 0] ------- [0:0 4:0 32 0] [0 0] 0 0
s 12.500000000 _0_ RTR  --- 0 AODV 48 [0 0 0 0] ------- [0:255 -1:255 30 0] [0x2 1 4 [4 0] [0 10]] (REQUEST)
r 12.501008754 _3_ RTR  --- 0 AODV 48 [0 ffffffff 0 800] ------- [0:255 -1:255 30 0] [0x2 1 4 [4 0] [0 10]] (REQUEST)
r 12.501008807 _5_ RTR  --- 0 AODV 48 [0 ffffffff 0 800] ------- [0:255 -1:255 30 0] [0x2 1 4 [4 0] [0 10]] (REQUEST)
s 12.504569339 _3_ RTR  --- 0 AODV 48 [0 ffffffff 0 800] ------- [3:255 -1:255 29 0] [0x2 2 4 [4 0] [0 10]] (REQUEST)
r 12.505957748 _16_ RTR  --- 0 AODV 48 [0 ffffffff 3 800] ------- [3:255 -1:255 29 0] [0x2 2 4 [4 0] [0 10]] (REQUEST)
r 12.505958004 _12_ RTR  --- 0 AODV 48 [0 ffffffff 3 800] ------- [3:255 -1:255 29 0] [0x2 2 4 [4 0] [0 10]] (REQUEST)
r 12.505958093 _0_ RTR  --- 0 AODV 48 [0 ffffffff 3 800] ------- [3:255 -1:255 29 0] [0x2 2 4 [4 0] [0 10]] (REQUEST)
r 12.505958163 _5_ RTR  --- 0 AODV 48 [0 ffffffff 3 800] ------- [3:255 -1:255 29 0] [0x2 2 4 [4 0] [0 10]] (REQUEST)
r 12.505958170 _17_ RTR  --- 0 AODV 48 [0 ffffffff 3 800] ------- [3:255 -1:255 29 0] [0x2 2 4 [4 0] [0 10]] (REQUEST)
s 12.506592893 _5_ RTR  --- 0 AODV 48 [0 ffffffff 0 800] ------- [5:255 -1:255 29 0] [0x2 2 4 [4 0] [0 10]] (REQUEST)
s 12.507457888 _12_ RTR  --- 0 AODV 48 [0 ffffffff 3 800] ------- [12:255 -1:255 28 0] [0x2 3 4 [4 0] [0 10]] (REQUEST)
r 12.507881233 _15_ RTR  --- 0 AODV 48 [0 ffffffff 5 800] ------- [5:255 -1:255 29 0] [0x2 2 4 [4 0] [0 10]] (REQUEST)
r 12.507881590 _13_ RTR  --- 0 AODV 48 [0 ffffffff 5 800] ------- [5:255 -1:255 29 0] [0x2 2 4 [4 0] [0 10]] (REQUEST)
r 12.507881600 _8_ RTR  --- 0 AODV 48 [0 ffffffff 5 800] ------- [5:255 -1:255 29 0] [0x2 2 4 [4 0] [0 10]] (REQUEST)
r 12.507881699 _0_ RTR  --- 0 AODV 48 [0 ffffffff 5 800] ------- [5:255 -1:255 29 0] [0x2 2 4 [4 0] [0 10]] (REQUEST)
r 12.507881716 _3_ RTR  --- 0 AODV 48 [0 ffffffff 5 800] ------- [5:255 -1:255 29 0] [0x2 2 4 [4 0] [0 10]] (REQUEST)
s 12.508715531 _15_ RTR  --- 0 AODV 48 [0 ffffffff 5 800] ------- [15:255 -1:255 28 0] [0x2 3 4 [4 0] [0 10]] (REQUEST)
r 12.509184540 _17_ RTR  --- 0 AODV 48 [0 ffffffff c 800] ------- [12:255 -1:255 28 0] [0x2 3 4 [4 0] [0 10]] (REQUEST)
r 12.509184789 _16_ RTR  --- 0 AODV 48 [0 ffffffff c 800] ------- [12:255 -1:255 28 0] [0x2 3 4 [4 0] [0 10]] (REQUEST)
r 12.509185025 _3_ RTR  --- 0 AODV 48 [0 ffffffff c 800] ------- [12:255 -1:255 28 0] [0x2 3 4 [4 0] [0 10]] (REQUEST)
s 12.510021945 _17_ RTR  --- 0 AODV 48 [0 ffffffff 3 800] ------- [17:255 -1:255 28 0] [0x2 3 4 [4 0] [0 10]] (REQUEST)
r 12.510888100 _5_ RTR  --- 0 AODV 48 [0 ffffffff f 800] ------- [15:255 -1:255 28 0] [0x2 3 4 [4 0] [0 10]] (REQUEST)
r 12.510888294 _8_ RTR  --- 0 AODV 48 [0 ffffffff f 800] ------- [15:255 -1:255 28 0] [0x2 3 4 [4 0] [0 10]] (REQUEST)
r 12.510888367 _10_ RTR  --- 0 AODV 48 [0 ffffffff f 800] ------- [15:255 -1:255 28 0] [0x2 3 4 [4 0] [0 10]] (REQUEST)
r 12.510888574 _1_ RTR  --- 0 AODV 48 [0 ffffffff f 800] ------- [15:255 -1:255 28 0] [0x2 3 4 [4 0] [0 10]] (REQUEST)
r 12.510888593 _3_ RTR  --- 0 AODV 48 [0 ffffffff f 800] ------- [15:255 -1:255 28 0] [0x2 3 4 [4 0] [0 10]] (REQUEST)
s 12.510921870 _10_ RTR  --- 0 AODV 48 [0 ffffffff f 800] ------- [10:255 -1:255 27 0] [0x2 4 4 [4 0] [0 10]] (REQUEST)
s 12.511203735 _13_ RTR  --- 0 AODV 48 [0 ffffffff 5 800] ------- [13:255 -1:255 28 0] [0x2 3 4 [4 0] [0 10]] (REQUEST)
r 12.512010167 _7_ RTR  --- 0 AODV 48 [0 ffffffff a 800] ------- [10:255 -1:255 27 0] [0x2 4 4 [4 0] [0 10]] (REQUEST)
r 12.512010454 _11_ RTR  --- 0 AODV 48 [0 ffffffff a 800] ------- [10:255 -1:255 27 0] [0x2 4 4 [4 0] [0 10]] (REQUEST)
r 12.512010477 _15_ RTR  --- 0 AODV 48 [0 ffffffff a 800] ------- [10:255 -1:255 27 0] [0x2 4 4 [4 0] [0 10]] (REQUEST)
r 12.512010630 _19_ RTR  --- 0 AODV 48 [0 ffffffff a 800] ------- [10:255 -1:255 27 0] [0x2 4 4 [4 0] [0 10]] (REQUEST)
r 12.512010659 _8_ RTR  --- 0 AODV 48 [0 ffffffff a 800] ------- [10:255 -1:255 27 0] [0x2 4 4 [4 0] [0 10]] (REQUEST)
s 12.512329869 _11_ RTR  --- 0 AODV 48 [0 ffffffff a 800] ------- [11:255 -1:255 26 0] [0x2 5 4 [4 0] [0 10]] (REQUEST)
s 12.512593007 _16_ RTR  --- 0 AODV 48 [0 ffffffff 3 800] ------- [16:255 -1:255 28 0] [0x2 3 4 [4 0] [0 10]] (REQUEST)
r 12.513393554 _12_ RTR  --- 0 AODV 48 [0 ffffffff 11 800] ------- [17:255 -1:255 28 0] [0x2 3 4 [4 0] [0 10]] (REQUEST)
r 12.513393980 _16_ RTR  --- 0 AODV 48 [0 ffffffff 11 800] ------- [17:255 -1:255 28 0] [0x2 3 4 [4 0] [0 10]] (REQUEST)
r 12.513394062 _14_ RTR  --- 0 AODV 48 [0 ffffffff 11 800] ------- [17:255 -1:255 28 0] [0x2 3 4 [4 0] [0 10]] (REQUEST)
s 12.513722358 _7_ RTR  --- 0 AODV 48 [0 ffffffff a 800] ------- [7:255 -1:255 26 0] [0x2 5 4 [4 0] [0 10]] (REQUEST)
s 12.514105922 _1_ RTR  --- 0 AODV 48 [0 ffffffff f 800] ------- [1:255 -1:255 27 0] [0x2 4 4 [4 0] [0 10]] (REQUEST)
r 12.514716821 _19_ RTR  --- 0 AODV 48 [0 ffffffff b 800] ------- [11:255 -1:255 26 0] [0x2 5 4 [4 0] [0 10]] (REQUEST)
r 12.514717091 _7_ RTR  --- 0 AODV 48 [0 ffffffff b 800] ------- [11:255 -1:255 26 0] [0x2 5 4 [4 0] [0 10]] (REQUEST)
r 12.514717152 _10_ RTR  --- 0 AODV 48 [0 ffffffff b 800] ------- [11:255 -1:255 26 0] [0x2 5 4 [4 0] [0 10]] (REQUEST)
r 12.514717341 _16_ RTR  --- 0 AODV 48 [0 ffffffff b 800] ------- [11:255 -1:255 26 0] [0x2 5 4 [4 0] [0 10]] (REQUEST)
s 12.514838498 _8_ RTR  --- 0 AODV 48 [0 ffffffff 5 800] ------- [8:255 -1:255 28 0] [0x2 3 4 [4 0] [0 10]] (REQUEST)
r 12.515635389 _10_ RTR  --- 0 AODV 48 [0 ffffffff 7 800] ------- [7:255 -1:255 26 0] [0x2 5 4 [4 0] [0 10]] (REQUEST)
r 12.515635749 _3_ RTR  --- 0 AODV 48 [0 ffffffff 10 800] ------- [16:255 -1:255 28 0] [0x2 3 4 [4 0] [0 10]] (REQUEST)
r 12.515635769 _12_ RTR  --- 0 AODV 48 [0 ffffffff 10 800] ------- [16:255 -1:255 28 0] [0x2 3 4 [4 0] [0 10]] (REQUEST)
r 12.515635946 _17_ RTR  --- 0 AODV 48 [0 ffffffff 10 800] ------- [16:255 -1:255 28 0] [0x2 3 4 [4 0] [0 10]] (REQUEST)
r 12.517319119 _1_ RTR  --- 0 AODV 48 [0 ffffffff 8 800] ------- [8:255 -1:255 28 0] [0x2 3 4 [4 0] [0 10]] (REQUEST)
r 12.517319357 _15_ RTR  --- 0 AODV 48 [0 ffffffff 8 800] ------- [8:255 -1:255 28 0] [0x2 3 4 [4 0] [0 10]] (REQUEST)
r 12.517319531 _5_ RTR  --- 0 AODV 48 [0 ffffffff 8 800] ------- [8:255 -1:255 28 0] [0x2 3 4 [4 0] [0 10]] (REQUEST)
r 12.517319612 _10_ RTR  --- 0 AODV 48 [0 ffffffff 8 800] ------- [8:255 -1:255 28 0] [0x2 3 4 [4 0] [0 10]] (REQUEST)
s 12.517906676 _14_ RTR  --- 0 AODV 48 [0 ffffffff 11 800] ------- [14:255 -1:255 27 0] [0x2 4 4 [4 0] [0 10]] (REQUEST)
r 12.518317414 _8_ RTR  --- 0 AODV 48 [0 ffffffff 1 800] ------- [1:255 -1:255 27 0] [0x2 4 4 [4 0] [0 10]] (REQUEST)
r 12.518317933 _15_ RTR  --- 0 AODV 48 [0 ffffffff 1 800] ------- [1:255 -1:255 27 0] [0x2 4 4 [4 0] [0 10]] (REQUEST)
r 12.519115363 _17_ RTR  --- 0 AODV 48 [0 ffffffff e 800] ------- [14:255 -1:255 27 0] [0x2 4 4 [4 0] [0 10]] (REQUEST)
s 12.519562985 _19_ RTR  --- 0 AODV 48 [0 ffffffff a 800] ------- [19:255 -1:255 26 0] [0x2 5 4 [4 0] [0 10]] (REQUEST)
r 12.520891238 _11_ RTR  --- 0 AODV 48 [0 ffffffff 13 800] ------- [19:255 -1:255 26 0] [0x2 5 4 [4 0] [0 10]] (REQUEST)
r 12.520891586 _7_ RTR  --- 0 AODV 48 [0 ffffffff 13 800] ------- [19:255 -1:255 26 0] [0x2 5 4 [4 0] [0 10]] (REQUEST)
r 12.520891745 _10_ RTR  --- 0 AODV 48 [0 ffffffff 13 800] ------- [19:255 -1:255 26 0] [0x2 5 4 [4 0] [0 10]] (REQUEST)
D 20.000000000 _0_ RTR NRTE 0 tcp 40 [0 0 0 0] ------- [0:0 4:0 30 0] [0 0] 0 0
D 20.000000000 _0_ RTR NRTE 1 tcp 40 [0 0 0 0] ------- [0:0 4:0 30 0] [0 0] 0 0
D 20.000000000 _0_ RTR NRTE 2 tcp 40 [0 0 0 0] ------- [0:0 4:0 30 0] [0 0] 0 0
s 22.000000000 _0_ AGT  --- 3 tcp 40 [0 0 0 0] ------- [0:0 4:0 32 0] [0 0] 0 0
r 22.000000000 _0_ RTR  --- 3 tcp 40 [0 0 0 0] ------- [0:0 4:0 32 0] [0 0] 0 0
s 30.000000000 _0_ RTR  --- 0 AODV 48 [0 0 0 0] ------- [0:255 -1:255 30 0] [0x2 1 5 [4 0] [0 12]] (REQUEST)
r 30.001328494 _15_ RTR  --- 0 AODV 48 [0 ffffffff 0 800] ------- [0:255 -1:255 30 0] [0x2 1 5 [4 0] [0 12]] (REQUEST)
r 30.001328688 _3_ RTR  --- 0 AODV 48 [0 ffffffff 0 800] ------- [0:255 -1:255 30 0] [0x2 1 5 [4 0] [0 12]] (REQUEST)
r 30.001328726 _5_ RTR  --- 0 AODV 48 [0 ffffffff 0 800] ------- [0:255 -1:255 30 0] [0x2 1 5 [4 0] [0 12]] (REQUEST)
r 30.001328751 _12_ RTR  --- 0 AODV 48 [0 ffffffff 0 800] ------- [0:255 -1:255 30 0] [0x2 1 5 [4 0] [0 12]] (REQUEST)
r 30.001328796 _13_ RTR  --- 0 AODV 48 [0 ffffffff 0 800] ------- [0:255 -1:255 30 0] [0x2 1 5 [4 0] [0 12]] (REQUEST)
s 30.001973642 _12_ RTR  --- 0 AODV 48 [0 ffffffff 0 800] ------- [12:255 -1:255 29 0] [0x2 2 5 [4 0] [0 12]] (REQUEST)
s 30.002913825 _3_ RTR  --- 0 AODV 48 [0 ffffffff 0 800] ------- [3:255 -1:255 29 0] [0x2 2 5 [4 0] [0 12]] (REQUEST)
s 30.003095644 _13_ RTR  --- 0 AODV 48 [0 ffffffff 0 800] ------- [13:255 -1:255 29 0] [0x2 2 5 [4 0] [0 12]] (REQUEST)
r 30.003162088 _3_ RTR  --- 0 AODV 48 [0 ffffffff c 800] ------- [12:255 -1:255 29 0] [0x2 2 5 [4 0] [0 12]] (REQUEST)
r 30.003162292 _17_ RTR  --- 0 AODV 48 [0 ffffffff c 800] ------- [12:255 -1:255 29 0] [0x2 2 5 [4 0] [0 12]] (REQUEST)
r 30.003162344 _5_ RTR  --- 0 AODV 48 [0 ffffffff c 800] ------- [12:255 -1:255 29 0] [0x2 2 5 [4 0] [0 12]] (REQUEST)
r 30.003162345 _16_ RTR  --- 0 AODV 48 [0 ffffffff c 800] ------- [12:255 -1:255 29 0] [0x2 2 5 [4 0] [0 12]] (REQUEST)
r 30.003162375 _15_ RTR  --- 0 AODV 48 [0 ffffffff c 800] ------- [12:255 -1:255 29 0] [0x2 2 5 [4 0] [0 12]] (REQUEST)
r 30.003162393 _0_ RTR  --- 0 AODV 48 [0 ffffffff c 800] ------- [12:255 -1:255 29 0] [0x2 2 5 [4 0] [0 12]] (REQUEST)
s 30.003684133 _5_ RTR  --- 0 AODV 48 [0 ffffffff 0 800] ------- [5:255 -1:255 29 0] [0x2 2 5 [4 0] [0 12]] (REQUEST)
r 30.004060348 _5_ RTR  --- 0 AODV 48 [0 ffffffff 3 800] ------- [3:255 -1:255 29 0] [0x2 2 5 [4 0] [0 12]] (REQUEST)
r 30.004060470 _15_ RTR  --- 0 AODV 48 [0 ffffffff 3 800] ------- [3:255 -1:255 29 0] [0x2 2 5 [4 0] [0 12]] (REQUEST)
r 30.004060534 _12_ RTR  --- 0 AODV 48 [0 ffffffff 3 800] ------- [3:255 -1:255 29 0] [0x2 2 5 [4 0] [0 12]] (REQUEST)
r 30.004060687 _10_ RTR  --- 0 AODV 48 [0 ffffffff 3 800] ------- [3:255 -1:255 29 0] [0x2 2 5 [4 0] [0 12]] (REQUEST)
r 30.004060775 _0_ RTR  --- 0 AODV 48 [0 ffffffff 3 800] ------- [3:255 -1:255 29 0] [0x2 2 5 [4 0] [0 12]] (REQUEST)
r 30.005424064 _0_ RTR  --- 0 AODV 48 [0 ffffffff d 800] ------- [13:255 -1:255 29 0] [0x2 2 5 [4 0] [0 12]] (REQUEST)
r 30.005424068 _15_ RTR  --- 0 AODV 48 [0 ffffffff d 800] ------- [13:255 -1:255 29 0] [0x2 2 5 [4 0] [0 12]] (REQUEST)
s 30.005430599 _17_ RTR  --- 0 AODV 48 [0 ffffffff c 800] ------- [17:255 -1:255 28 0] [0x2 3 5 [4 0] [0 12]] (REQUEST)
r 30.006518837 _16_ RTR  --- 0 AODV 48 [0 ffffffff 11 800] ------- [17:255 -1:255 28 0] [0x2 3 5 [4 0] [0 12]] (REQUEST)
r 30.006519168 _14_ RTR  --- 0 AODV 48 [0 ffffffff 11 800] ------- [17:255 -1:255 28 0] [0x2 3 5 [4 0] [0 12]] (REQUEST)
r 30.006519249 _12_ RTR  --- 0 AODV 48 [0 ffffffff 11 800] ------- [17:255 -1:255 28 0] [0x2 3 5 [4 0] [0 12]] (REQUEST)
r 30.006519428 _11_ RTR  --- 0 AODV 48 [0 ffffffff 11 800] ------- [17:255 -1:255 28 0] [0x2 3 5 [4 0] [0 12]] (REQUEST)
r 30.007902043 _3_ RTR  --- 0 AODV 48 [0 ffffffff 5 800] ------- [5:255 -1:255 29 0] [0x2 2 5 [4 0] [0 12]] (REQUEST)
r 30.007902046 _15_ RTR  --- 0 AODV 48 [0 ffffffff 5 800] ------- [5:255 -1:255 29 0] [0x2 2 5 [4 0] [0 12]] (REQUEST)
r 30.007902293 _10_ RTR  --- 0 AODV 48 [0 ffffffff 5 800] ------- [5:255 -1:255 29 0] [0x2 2 5 [4 0] [0 12]] (REQUEST)
r 30.007902486 _12_ RTR  --- 0 AODV 48 [0 ffffffff 5 800] ------- [5:255 -1:255 29 0] [0x2 2 5 [4 0] [0 12]] (REQUEST)
r 30.007902509 _0_ RTR  --- 0 AODV 48 [0 ffffffff 5 800] ------- [5:255 -1:255 29 0] [0x2 2 5 [4 0] [0 12]] (REQUEST)
s 30.009836322 _15_ RTR  --- 0 AODV 48 [0 ffffffff 0 800] ------- [15:255 -1:255 29 0] [0x2 2 5 [4 0] [0 12]] (REQUEST)
r 30.010784585 _5_ RTR  --- 0 AODV 48 [0 ffffffff f 800] ------- [15:255 -1:255 29 0] [0x2 2 5 [4 0] [0 12]] (REQUEST)
r 30.010784704 _3_ RTR  --- 0 AODV 48 [0 ffffffff f 800] ------- [15:255 -1:255 29 0] [0x2 2 5 [4 0] [0 12]] (REQUEST)
r 30.010784816 _0_ RTR  --- 0 AODV 48 [0 ffffffff f 800] ------- [15:255 -1:255 29 0] [0x2 2 5 [4 0] [0 12]] (REQUEST)
r 30.010785055 _12_ RTR  --- 0 AODV 48 [0 ffffffff f 800] ------- [15:255 -1:255 29 0] [0x2 2 5 [4 0] [0 12]] (REQUEST)
r 30.010785092 _10_ RTR  --- 0 AODV 48 [0 ffffffff f 800] ------- [15:255 -1:255 29 0] [0x2 2 5 [4 0] [0 12]] (REQUEST)
r 30.010785122 _13_ RTR  --- 0 AODV 48 [0 ffffffff f 800] ------- [15:255 -1:255 29 0] [0x2 2 5 [4 0] [0 12]] (REQUEST)
s 30.010937599 _14_ RTR  --- 0 AODV 48 [0 ffffffff 11 800] ------- [14:255 -1:255 27 0] [0x2 4 5 [4 0] [0 12]] (REQUEST)
s 30.011464758 _16_ RTR  --- 0 AODV 48 [0 ffffffff c 800] ------- [16:255 -1:255 28 0] [0x2 3 5 [4 0] [0 12]] (REQUEST)
s 30.012001067 _10_ RTR  --- 0 AODV 48 [0 ffffffff 3 800] ------- [10:255 -1:255 28 0] [0x2 3 5 [4 0] [0 12]] (REQUEST)
r 30.012385988 _9_ RTR  --- 0 AODV 48 [0 ffffffff e 800] ------- [14:255 -1:255 27 0] [0x2 4 5 [4 0] [0 12]] (REQUEST)
r 30.012386167 _17_ RTR  --- 0 AODV 48 [0 ffffffff e 800] ------- [14:255 -1:255 27 0] [0x2 4 5 [4 0] [0 12]] (REQUEST)
r 30.012386227 _16_ RTR  --- 0 AODV 48 [0 ffffffff e 800] ------- [14:255 -1:255 27 0] [0x2 4 5 [4 0] [0 12]] (REQUEST)
r 30.012386358 _4_ RTR  --- 0 AODV 48 [0 ffffffff e 800] ------- [14:255 -1:255 27 0] [0x2 4 5 [4 0] [0 12]] (REQUEST)
s 30.012386358 _4_ RTR  --- 0 AODV 44 [0 0 0 0] ------- [4:255 0:255 30 14] [0x4 1 [4 4] 10.000000] (REPLY)
r 30.014578618 _5_ RTR  --- 0 AODV 48 [0 ffffffff a 800] ------- [10:255 -1:255 28 0] [0x2 3 5 [4 0] [0 12]] (REQUEST)
r 30.014578644 _7_ RTR  --- 0 AODV 48 [0 ffffffff a 800] ------- [10:255 -1:255 28 0] [0x2 3 5 [4 0] [0 12]] (REQUEST)
r 30.014578707 _3_ RTR  --- 0 AODV 48 [0 ffffffff a 800] ------- [10:255 -1:255 28 0] [0x2 3 5 [4 0] [0 12]] (REQUEST)
r 30.014578876 _19_ RTR  --- 0 AODV 48 [0 ffffffff a 800] ------- [10:255 -1:255 28 0] [0x2 3 5 [4 0] [0 12]] (REQUEST)
r 30.014578878 _15_ RTR  --- 0 AODV 48 [0 ffffffff a 800] ------- [10:255 -1:255 28 0] [0x2 3 5 [4 0] [0 12]] (REQUEST)
r 30.014578938 _8_ RTR  --- 0 AODV 48 [0 ffffffff a 800] ------- [10:255 -1:255 28 0] [0x2 3 5 [4 0] [0 12]] (REQUEST)
r 30.015901345 _17_ RTR  --- 0 AODV 48 [0 ffffffff 10 800] ------- [16:255 -1:255 28 0] [0x2 3 5 [4 0] [0 12]] (REQUEST)
r 30.015901723 _11_ RTR  --- 0 AODV 48 [0 ffffffff 10 800] ------- [16:255 -1:255 28 0] [0x2 3 5 [4 0] [0 12]] (REQUEST)
r 30.015901735 _14_ RTR  --- 0 AODV 48 [0 ffffffff 10 800] ------- [16:255 -1:255 28 0] [0x2 3 5 [4 0] [0 12]] (REQUEST)
r 30.015901811 _19_ RTR  --- 0 AODV 48 [0 ffffffff 10 800] ------- [16:255 -1:255 28 0] [0x2 3 5 [4 0] [0 12]] (REQUEST)
r 30.015901811 _12_ RTR  --- 0 AODV 48 [0 ffffffff 10 800] ------- [16:255 -1:255 28 0] [0x2 3 5 [4 0] [0 12]] (REQUEST)
s 30.015918617 _11_ RTR  --- 0 AODV 48 [0 ffffffff 11 800] ------- [11:255 -1:255 27 0] [0x2 4 5 [4 0] [0 12]] (REQUEST)
s 30.017207485 _19_ RTR  --- 0 AODV 48 [0 ffffffff a 800] ------- [19:255 -1:255 27 0] [0x2 4 5 [4 0] [0 12]] (REQUEST)
s 30.017739514 _9_ RTR  --- 0 AODV 48 [0 ffffffff e 800] ------- [9:255 -1:255 26 0] [0x2 5 5 [4 0] [0 12]] (REQUEST)
s 30.019374100 _8_ RTR  --- 0 AODV 48 [0 ffffffff a 800] ------- [8:255 -1:255 27 0] [0x2 4 5 [4 0] [0 12]] (REQUEST)
r 30.020053820 _11_ RTR  --- 0 AODV 48 [0 ffffffff 13 800] ------- [19:255 -1:255 27 0] [0x2 4 5 [4 0] [0 12]] (REQUEST)
r 30.020053857 _7_ RTR  --- 0 AODV 48 [0 ffffffff 13 800] ------- [19:255 -1:255 27 0] [0x2 4 5 [4 0] [0 12]] (REQUEST)
r 30.020054206 _16_ RTR  --- 0 AODV 48 [0 ffffffff 13 800] ------- [19:255 -1:255 27 0] [0x2 4 5 [4 0] [0 12]] (REQUEST)
r 30.020054271 _10_ RTR  --- 0 AODV 48 [0 ffffffff 13 800] ------- [19:255 -1:255 27 0] [0x2 4 5 [4 0] [0 12]] (REQUEST)
r 30.020054297 _18_ RTR  --- 0 AODV 48 [0 ffffffff 13 800] ------- [19:255 -1:255 27 0] [0x2 4 5 [4 0] [0 12]] (REQUEST)
r 30.021192137 _19_ RTR  --- 0 AODV 48 [0 ffffffff b 800] ------- [11:255 -1:255 27 0] [0x2 4 5 [4 0] [0 12]] (REQUEST)
r 30.021192435 _16_ RTR  --- 0 AODV 48 [0 ffffffff b 800] ------- [11:255 -1:255 27 0] [0x2 4 5 [4 0] [0 12]] (REQUEST)
r 30.021192491 _7_ RTR  --- 0 AODV 48 [0 ffffffff b 800] ------- [11:255 -1:255 27 0] [0x2 4 5 [4 0] [0 12]] (REQUEST)
r 30.021192524 _4_ RTR  --- 0 AODV 48 [0 ffffffff b 800] ------- [11:255 -1:255 27 0] [0x2 4 5 [4 0] [0 12]] (REQUEST)
r 30.021192560 _18_ RTR  --- 0 AODV 48 [0 ffffffff b 800] ------- [11:255 -1:255 27 0] [0x2 4 5 [4 0] [0 12]] (REQUEST)