r 1.010125170 _0_ RTR  --- 0 AODV 48 [0 ffffffff 1 800] ------- [1:255 -1:255 29 0] [0x2 2 1 [4 0] [0 4]] (REQUEST)
r 1.010125232 _4_ RTR  --- 0 AODV 48 [0 ffffffff 1 800] ------- [1:255 -1:255 29 0] [0x2 2 1 [4 0] [0 4]] (REQUEST)
r 1.010125239 _14_ RTR  --- 0 AODV 48 [0 ffffffff 1 800] ------- [1:255 -1:255 29 0] [0x2 2 1 [4 0] [0 4]] (REQUEST)
r 1.011915449 _0_ AGT  --- 1 ack 40 [13a 0 4 800] ------- [4:0 0:0 30 0] [0 0] 1 0
s 1.011915449 _0_ AGT  --- 2 tcp 1540 [0 0 0 0] ------- [0:0 4:0 32 0] [1 0] 0 0
r 1.011915449 _0_ RTR  --- 2 tcp 1540 [0 0 0 0] ------- [0:0 4:0 32 0] [1 0] 0 0
s 1.011915449 _0_ AGT  --- 3 tcp 1540 [0 0 0 0] ------- [0:0 4:0 32 0] [2 0] 0 0
r 1.011915449 _0_ RTR  --- 3 tcp 1540 [0 0 0 0] ------- [0:0 4:0 32 0] [2 0] 0 0
s 1.011915449 _0_ RTR  --- 2 tcp 1540 [0 0 0 0] ------- [0:0 4:0 30 4] [1 0] 0 0
s 1.011915449 _0_ RTR  --- 3 tcp 1540 [0 0 0 0] ------- [0:0 4:0 30 4] [2 0] 0 0
r 1.025979665 _4_ AGT  --- 2 tcp 1540 [13a 4 0 800] ------- [0:0 4:0 30 4] [1 0] 1 0
s 1.025979665 _4_ AGT  --- 4 ack 40 [0 0 0 0] ------- [4:0 0:0 32 0] [1 0] 0 0
r 1.025979665 _4_ RTR  --- 4 ack 40 [0 0 0 0] ------- [4:0 0:0 32 0] [1 0] 0 0
s 1.025979665 _4_ RTR  --- 4 ack 40 [0 0 0 0] ------- [4:0 0:0 30 0] [1 0] 0 0
r 1.040143955 _4_ AGT  --- 3 tcp 1540 [13a 4 0 800] ------- [0:0 4:0 30 4] [2 0] 1 0
s 1.040143955 _4_ AGT  --- 5 ack 40 [0 0 0 0] ------- [4:0 0:0 32 0] [2 0] 0 0
r 1.040143955 _4_ RTR  --- 5 ack 40 [0 0 0 0] ------- [4:0 0:0 32 0] [2 0] 0 0
s 1.040143955 _4_ RTR  --- 5 ack 40 [0 0 0 0] ------- [4:0 0:0 30 0] [2 0] 0 0
r 1.042108172 _0_ AGT  --- 4 ack 40 [13a 0 4 800] ------- [4:0 0:0 30 0] [1 0] 1 0
s 1.042108172 _0_ AGT  --- 6 tcp 1540 [0 0 0 0] ------- [0:0 4:0 32 0] [3 0] 0 0
r 1.042108172 _0_ RTR  --- 6 tcp 1540 [0 0 0 0] ------- [0:0 4:0 32 0] [3 0] 0 0
s 1.042108172 _0_ AGT  --- 7 tcp 1540 [0 0 0 0] ------- [0:0 4:0 32 0] [4 0] 0 0
r 1.042108172 _0_ RTR  --- 7 tcp 1540 [0 0 0 0] ------- [0:0 4:0 32 0] [4 0] 0 0
s 1.042108172 _0_ RTR  --- 6 tcp 1540 [0 0 0 0] ------- [0:0 4:0 30 4] [3 0] 0 0
s 1.042108172 _0_ RTR  --- 7 tcp 1540 [0 0 0 0] ------- [0:0 4:0 30 4] [4 0] 0 0
r 1.056112389 _4_ AGT  --- 6 tcp 1540 [13a 4 0 800] ------- [0:0 4:0 30 4] [3 0] 1 0
s 1.056112389 _4_ AGT  --- 8 ack 40 [0 0 0 0] ------- [4:0 0:0 32 0] [3 0] 0 0
r 1.056112389 _4_ RTR  --- 8 ack 40 [0 0 0 0] ------- [4:0 0:0 32 0] [3 0] 0 0
s 1.056112389 _4_ RTR  --- 8 ack 40 [0 0 0 0] ------- [4:0 0:0 30 0] [3 0] 0 0
r 1.057956607 _0_ AGT  --- 5 ack 40 [13a 0 4 800] ------- [4:0 0:0 30 0] [2 0] 1 0
s 1.057956607 _0_ AGT  --- 9 tcp 1540 [0 0 0 0] ------- [0:0 4:0 32 0] [5 0] 0 0
r 1.057956607 _0_ RTR  --- 9 tcp 1540 [0 0 0 0] ------- [0:0 4:0 32 0] [5 0] 0 0
s 1.057956607 _0_ AGT  --- 10 tcp 1540 [0 0 0 0] ------- [0:0 4:0 32 0] [6 0] 0 0
r 1.057956607 _0_ RTR  --- 10 tcp 1540 [0 0 0 0] ------- [0:0 4:0 32 0] [6 0] 0 0
s 1.057956607 _0_ RTR  --- 9 tcp 1540 [0 0 0 0] ------- [0:0 4:0 30 4] [5 0] 0 0
s 1.057956607 _0_ RTR  --- 10 tcp 1540 [0 0 0 0] ------- [0:0 4:0 30 4] [6 0] 0 0
r 1.059800897 _0_ AGT  --- 8 ack 40 [13a 0 4 800] ------- [4:0 0:0 30 0] [3 0] 1 0
s 1.059800897 _0_ AGT  --- 11 tcp 1540 [0 0 0 0] ------- [0:0 4:0 32 0] [7 0] 0 0
r 1.059800897 _0_ RTR  --- 11 tcp 1540 [0 0 0 0] ------- [0:0 4:0 32 0] [7 0] 0 0
s 1.059800897 _0_ AGT  --- 12 tcp 1540 [0 0 0 0] ------- [0:0 4:0 32 0] [8 0] 0 0
r 1.059800897 _0_ RTR  --- 12 tcp 1540 [0 0 0 0] ------- [0:0 4:0 32 0] [8 0] 0 0
s 1.059800897 _0_ RTR  --- 11 tcp 1540 [0 0 0 0] ------- [0:0 4:0 30 4] [7 0] 0 0
s 1.059800897 _0_ RTR  --- 12 tcp 1540 [0 0 0 0] ------- [0:0 4:0 30 4] [8 0] 0 0
r 1.073805115 _4_ AGT  --- 7 tcp 1540 [13a 4 0 800] ------- [0:0 4:0 30 4] [4 0] 1 0
s 1.073805115 _4_ AGT  --- 13 ack 40 [0 0 0 0] ------- [4:0 0:0 32 0] [4 0] 0 0
r 1.073805115 _4_ RTR  --- 13 ack 40 [0 0 0 0] ------- [4:0 0:0 32 0] [4 0] 0 0
s 1.073805115 _4_ RTR  --- 13 ack 40 [0 0 0 0] ------- [4:0 0:0 30 0] [4 0] 0 0
r 1.075689333 _0_ AGT  --- 13 ack 40 [13a 0 4 800] ------- [4:0 0:0 30 0] [4 0] 1 0
s 1.075689333 _0_ AGT  --- 14 tcp 1540 [0 0 0 0] ------- [0:0 4:0 32 0] [9 0] 0 0
r 1.075689333 _0_ RTR  --- 14 tcp 1540 [0 0 0 0] ------- [0:0 4:0 32 0] [9 0] 0 0
s 1.075689333 _0_ AGT  --- 15 tcp 1540 [0 0 0 0] ------- [0:0 4:0 32 0] [10 0] 0 0
r 1.075689333 _0_ RTR  --- 15 tcp 1540 [0 0 0 0] ------- [0:0 4:0 32 0] [10 0] 0 0
s 1.075689333 _0_ RTR  --- 14 tcp 1540 [0 0 0 0] ------- [0:0 4:0 30 4] [9 0] 0 0
s 1.075689333 _0_ RTR  --- 15 tcp 1540 [0 0 0 0] ------- [0:0 4:0 30 4] [10 0] 0 0
r 1.089893551 _4_ AGT  --- 9 tcp 1540 [13a 4 0 800] ------- [0:0 4:0 30 4] [5 0] 1 0
s 1.089893551 _4_ AGT  --- 16 ack 40 [0 0 0 0] ------- [4:0 0:0 32 0] [5 0] 0 0
r 1.089893551 _4_ RTR  --- 16 ack 40 [0 0 0 0] ------- [4:0 0:0 32 0] [5 0] 0 0
s 1.089893551 _4_ RTR  --- 16 ack 40 [0 0 0 0] ------- [4:0 0:0 30 0] [5 0] 0 0
r 1.104117843 _4_ AGT  --- 10 tcp 1540 [13a 4 0 800] ------- [0:0 4:0 30 4] [6 0] 1 0
s 1.104117843 _4_ AGT  --- 17 ack 40 [0 0 0 0] ------- [4:0 0:0 32 0] [6 0] 0 0
r 1.104117843 _4_ RTR  --- 17 ack 40 [0 0 0 0] ------- [4:0 0:0 32 0] [6 0] 0 0
s 1.104117843 _4_ RTR  --- 17 ack 40 [0 0 0 0] ------- [4:0 0:0 30 0] [6 0] 0 0
r 1.106122061 _0_ AGT  --- 16 ack 40 [13a 0 4 800] ------- [4:0 0:0 30 0] [5 0] 1 0
s 1.106122061 _0_ AGT  --- 18 tcp 1540 [0 0 0 0] ------- [0:0 4:0 32 0] [11 0] 0 0
r 1.106122061 _0_ RTR  --- 18 tcp 1540 [0 0 0 0] ------- [0:0 4:0 32 0] [11 0] 0 0
s 1.106122061 _0_ AGT  --- 19 tcp 1540 [0 0 0 0] ------- [0:0 4:0 32 0] [12 0] 0 0
r 1.106122061 _0_ RTR  --- 19 tcp 1540 [0 0 0 0] ------- [0:0 4:0 32 0] [12 0] 0 0
s 1.106122061 _0_ RTR  --- 18 tcp 1540 [0 0 0 0] ------- [0:0 4:0 30 4] [11 0] 0 0
s 1.106122061 _0_ RTR  --- 19 tcp 1540 [0 0 0 0] ------- [0:0 4:0 30 4] [12 0] 0 0
r 1.122092426 _4_ AGT  --- 11 tcp 1540 [13a 4 0 800] ------- [0:0 4:0 30 4] [7 0] 1 0
s 1.122092426 _4_ AGT  --- 20 ack 40 [0 0 0 0] ------- [4:0 0:0 32 0] [7 0] 0 0
r 1.122092426 _4_ RTR  --- 20 ack 40 [0 0 0 0] ------- [4:0 0:0 32 0] [7 0] 0 0
s 1.122092426 _4_ RTR  --- 20 ack 40 [0 0 0 0] ------- [4:0 0:0 30 0] [7 0] 0 0
r 1.124016646 _0_ AGT  --- 17 ack 40 [13a 0 4 800] ------- [4:0 0:0 30 0] [6 0] 1 0
s 1.124016646 _0_ AGT  --- 21 tcp 1540 [0 0 0 0] ------- [0:0 4:0 32 0] [13 0] 0 0
r 1.124016646 _0_ RTR  --- 21 tcp 1540 [0 0 0 0] ------- [0:0 4:0 32 0] [13 0] 0 0
s 1.124016646 _0_ AGT  --- 22 tcp 1540 [0 0 0 0] ------- [0:0 4:0 32 0] [14 0] 0 0
r 1.124016646 _0_ RTR  --- 22 tcp 1540 [0 0 0 0] ------- [0:0 4:0 32 0] [14 0] 0 0
s 1.124016646 _0_ RTR  --- 21 tcp 1540 [0 0 0 0] ------- [0:0 4:0 30 4] [13 0] 0 0
s 1.124016646 _0_ RTR  --- 22 tcp 1540 [0 0 0 0] ------- [0:0 4:0 30 4] [14 0] 0 0
r 1.125980938 _0_ AGT  --- 20 ack 40 [13a 0 4 800] ------- [4:0 0:0 30 0] [7 0] 1 0
s 1.125980938 _0_ AGT  --- 23 tcp 1540 [0 0 0 0] ------- [0:0 4:0 32 0] [15 0] 0 0
r 1.125980938 _0_ RTR  --- 23 tcp 1540 [0 0 0 0] ------- [0:0 4:0 32 0] [15 0] 0 0
s 1.125980938 _0_ AGT  --- 24 tcp 1540 [0 0 0 0] ------- [0:0 4:0 32 0] [16 0] 0 0
r 1.125980938 _0_ RTR  --- 24 tcp 1540 [0 0 0 0] ------- [0:0 4:0 32 0] [16 0] 0 0
s 1.125980938 _0_ RTR  --- 23 tcp 1540 [0 0 0 0] ------- [0:0 4:0 30 4] [15 0] 0 0
s 1.125980938 _0_ RTR  --- 24 tcp 1540 [0 0 0 0] ------- [0:0 4:0 30 4] [16 0] 0 0
r 1.139925158 _4_ AGT  --- 12 tcp 1540 [13a 4 0 800] ------- [0:0 4:0 30 4] [8 0] 1 0
s 1.139925158 _4_ AGT  --- 25 ack 40 [0 0 0 0] ------- [4:0 0:0 32 0] [8 0] 0 0
r 1.139925158 _4_ RTR  --- 25 ack 40 [0 0 0 0] ------- [4:0 0:0 32 0] [8 0] 0 0
s 1.139925158 _4_ RTR  --- 25 ack 40 [0 0 0 0] ------- [4:0 0:0 30 0] [8 0] 0 0
r 1.153949451 _4_ AGT  --- 14 tcp 1540 [13a 4 0 800] ------- [0:0 4:0 30 4] [9 0] 1 0
s 1.153949451 _4_ AGT  --- 26 ack 40 [0 0 0 0] ------- [4:0 0:0 32 0] [9 0] 0 0
r 1.153949451 _4_ RTR  --- 26 ack 40 [0 0 0 0] ------- [4:0 0:0 32 0] [9 0] 0 0
s 1.153949451 _4_ RTR  --- 26 ack 40 [0 0 0 0] ------- [4:0 0:0 30 0] [9 0] 0 0
r 1.155853671 _0_ AGT  --- 25 ack 40 [13a 0 4 800] ------- [4:0 0:0 30 0] [8 0] 1 0
s 1.155853671 _0_ AGT  --- 27 tcp 1540 [0 0 0 0] ------- [0:0 4:0 32 0] [17 0] 0 0
r 1.155853671 _0_ RTR  --- 27 tcp 1540 [0 0 0 0] ------- [0:0 4:0 32 0] [17 0] 0 0
s 1.155853671 _0_ AGT  --- 28 tcp 1540 [0 0 0 0] ------- [0:0 4:0 32 0] [18 0] 0 0
r 1.155853671 _0_ RTR  --- 28 tcp 1540 [0 0 0 0] ------- [0:0 4:0 32 0] [18 0] 0 0
s 1.155853671 _0_ RTR  --- 27 tcp 1540 [0 0 0 0] ------- [0:0 4:0 30 4] [17 0] 0 0
s 1.155853671 _0_ RTR  --- 28 tcp 1540 [0 0 0 0] ------- [0:0 4:0 30 4] [18 0] 0 0
r 1.169697891 _4_ AGT  --- 15 tcp 1540 [13a 4 0 800] ------- [0:0 4:0 30 4] [10 0] 1 0
s 1.169697891 _4_ AGT  --- 29 ack 40 [0 0 0 0] ------- [4:0 0:0 32 0] [10 0] 0 0
r 1.169697891 _4_ RTR  --- 29 ack 40 [0 0 0 0] ------- [4:0 0:0 32 0] [10 0] 0 0
s 1.169697891 _4_ RTR  --- 29 ack 40 [0 0 0 0] ------- [4:0 0:0 30 0] [10 0] 0 0
r 1.183742185 _4_ AGT  --- 18 tcp 1540 [13a 4 0 800] ------- [0:0 4:0 30 4] [11 0] 1 0
s 1.183742185 _4_ AGT  --- 30 ack 40 [0 0 0 0] ------- [4:0 0:0 32 0] [11 0] 0 0
r 1.183742185 _4_ RTR  --- 30 ack 40 [0 0 0 0] ------- [4:0 0:0 32 0] [11 0] 0 0
s 1.183742185 _4_ RTR  --- 30 ack 40 [0 0 0 0] ------- [4:0 0:0 30 0] [11 0] 0 0
r 1.197766480 _4_ AGT  --- 19 tcp 1540 [13a 4 0 800] ------- [0:0 4:0 30 4] [12 0] 1 0
s 1.197766480 _4_ AGT  --- 31 ack 40 [0 0 0 0] ------- [4:0 0:0 32 0] [12 0] 0 0
r 1.197766480 _4_ RTR  --- 31 ack 40 [0 0 0 0] ------- [4:0 0:0 32 0] [12 0] 0 0
s 1.197766480 _4_ RTR  --- 31 ack 40 [0 0 0 0] ------- [4:0 0:0 30 0] [12 0] 0 0
r 1.199670701 _0_ AGT  --- 26 ack 40 [13a 0 4 800] ------- [4:0 0:0 30 0] [9 0] 1 0
s 1.199670701 _0_ AGT  --- 32 tcp 1540 [0 0 0 0] ------- [0:0 4:0 32 0] [19 0] 0 0
r 1.199670701 _0_ RTR  --- 32 tcp 1540 [0 0 0 0] ------- [0:0 4:0 32 0] [19 0] 0 0
s 1.199670701 _0_ AGT  --- 33 tcp 1540 [0 0 0 0] ------- [0:0 4:0 32 0] [20 0] 0 0
r 1.199670701 _0_ RTR  --- 33 tcp 1540 [0 0 0 0] ------- [0:0 4:0 32 0] [20 0] 0 0
s 1.199670701 _0_ RTR  --- 32 tcp 1540 [0 0 0 0] ------- [0:0 4:0 30 4] [19 0] 0 0
s 1.199670701 _0_ RTR  --- 33 tcp 1540 [0 0 0 0] ------- [0:0 4:0 30 4] [20 0] 0 0
r 1.201554997 _0_ AGT  --- 29 ack 40 [13a 0 4 800] ------- [4:0 0:0 30 0] [10 0] 1 0
s 1.201554997 _0_ AGT  --- 34 tcp 1540 [0 0 0 0] ------- [0:0 4:0 32 0] [21 0] 0 0
r 1.201554997 _0_ RTR  --- 34 tcp 1540 [0 0 0 0] ------- [0:0 4:0 32 0] [21 0] 0 0
s 1.201554997 _0_ AGT  --- 35 tcp 1540 [0 0 0 0] ------- [0:0 4:0 32 0] [22 0] 0 0
r 1.201554997 _0_ RTR  --- 35 tcp 1540 [0 0 0 0] ------- [0:0 4:0 32 0] [22 0] 0 0
s 1.201554997 _0_ RTR  --- 34 tcp 1540 [0 0 0 0] ------- [0:0 4:0 30 4] [21 0] 0 0
s 1.201554997 _0_ RTR  --- 35 tcp 1540 [0 0 0 0] ------- [0:0 4:0 30 4] [22 0] 0 0
r 1.203499292 _0_ AGT  --- 30 ack 40 [13a 0 4 800] ------- [4:0 0:0 30 0] [11 0] 1 0
s 1.203499292 _0_ AGT  --- 36 tcp 1540 [0 0 0 0] ------- [0:0 4:0 32 0] [23 0] 0 0
r 1.203499292 _0_ RTR  --- 36 tcp 1540 [0 0 0 0] ------- [0:0 4:0 32 0] [23 0] 0 0
s 1.203499292 _0_ AGT  --- 37 tcp 1540 [0 0 0 0] ------- [0:0 4:0 32 0] [24 0] 0 0
r 1.203499292 _0_ RTR  --- 37 tcp 1540 [0 0 0 0] ------- [0:0 4:0 32 0] [24 0] 0 0
s 1.203499292 _0_ RTR  --- 36 tcp 1540 [0 0 0 0] ------- [0:0 4:0 30 4] [23 0] 0 0
s 1.203499292 _0_ RTR  --- 37 tcp 1540 [0 0 0 0] ------- [0:0 4:0 30 4] [24 0] 0 0
r 1.217643513 _4_ AGT  --- 21 tcp 1540 [13a 4 0 800] ------- [0:0 4:0 30 4] [13 0] 1 0
s 1.217643513 _4_ AGT  --- 38 ack 40 [0 0 0 0] ------- [4:0 0:0 32 0] [13 0] 0 0
r 1.217643513 _4_ RTR  --- 38 ack 40 [0 0 0 0] ------- [4:0 0:0 32 0] [13 0] 0 0
s 1.217643513 _4_ RTR  --- 38 ack 40 [0 0 0 0] ------- [4:0 0:0 30 0] [13 0] 0 0
r 1.219487735 _0_ AGT  --- 31 ack 40 [13a 0 4 800] ------- [4:0 0:0 30 0] [12 0] 1 0
s 1.219487735 _0_ AGT  --- 39 tcp 1540 [0 0 0 0] ------- [0:0 4:0 32 0] [25 0] 0 0
r 1.219487735 _0_ RTR  --- 39 tcp 1540 [0 0 0 0] ------- [0:0 4:0 32 0] [25 0] 0 0
s 1.219487735 _0_ AGT  --- 40 tcp 1540 [0 0 0 0] ------- [0:0 4:0 32 0] [26 0] 0 0
r 1.219487735 _0_ RTR  --- 40 tcp 1540 [0 0 0 0] ------- [0:0 4:0 32 0] [26 0] 0 0
s 1.219487735 _0_ RTR  --- 39 tcp 1540 [0 0 0 0] ------- [0:0 4:0 30 4] [25 0] 0 0
s 1.219487735 _0_ RTR  --- 40 tcp 1540 [0 0 0 0] ------- [0:0 4:0 30 4] [26 0] 0 0
r 1.221592031 _0_ AGT  --- 38 ack 40 [13a 0 4 800] ------- [4:0 0:0 30 0] [13 0] 1 0
s 1.221592031 _0_ AGT  --- 41 tcp 1540 [0 0 0 0] ------- [0:0 4:0 32 0] [27 0] 0 0
r 1.221592031 _0_ RTR  --- 41 tcp 1540 [0 0 0 0] ------- [0:0 4:0 32 0] [27 0] 0 0
s 1.221592031 _0_ AGT  --- 42 tcp 1540 [0 0 0 0] ------- [0:0 4:0 32 0] [28 0] 0 0
r 1.221592031 _0_ RTR  --- 42 tcp 1540 [0 0 0 0] ------- [0:0 4:0 32 0] [28 0] 0 0
s 1.221592031 _0_ RTR  --- 41 tcp 1540 [0 0 0 0] ------- [0:0 4:0 30 4] [27 0] 0 0
s 1.221592031 _0_ RTR  --- 42 tcp 1540 [0 0 0 0] ------- [0:0 4:0 30 4] [28 0] 0 0
r 1.235616253 _4_ AGT  --- 22 tcp 1540 [13a 4 0 800] ------- [0:0 4:0 30 4] [14 0] 1 0
s 1.235616253 _4_ AGT  --- 43 ack 40 [0 0 0 0] ------- [4:0 0:0 32 0] [14 0] 0 0
r 1.235616253 _4_ RTR  --- 43 ack 40 [0 0 0 0] ------- [4:0 0:0 32 0] [14 0] 0 0
s 1.235616253 _4_ RTR  --- 43 ack 40 [0 0 0 0] ------- [4:0 0:0 30 0] [14 0] 0 0
r 1.237720476 _0_ AGT  --- 43 ack 40 [13a 0 4 800] ------- [4:0 0:0 30 0] [14 0] 1 0
s 1.237720476 _0_ AGT  --- 44 tcp 1540 [0 0 0 0] ------- [0:0 4:0 32 0] [29 0] 0 0
r 1.237720476 _0_ RTR  --- 44 tcp 1540 [0 0 0 0] ------- [0:0 4:0 32 0] [29 0] 0 0
s 1.237720476 _0_ AGT  --- 45 tcp 1540 [0 0 0 0] ------- [0:0 4:0 32 0] [30 0] 0 0
r 1.237720476 _0_ RTR  --- 45 tcp 1540 [0 0 0 0] ------- [0:0 4:0 32 0] [30 0] 0 0
s 1.237720476 _0_ RTR  --- 44 tcp 1540 [0 0 0 0] ------- [0:0 4:0 30 4] [29 0] 0 0
s 1.237720476 _0_ RTR  --- 45 tcp 1540 [0 0 0 0] ------- [0:0 4:0 30 4] [30 0] 0 0
r 1.251744698 _4_ AGT  --- 23 tcp 1540 [13a 4 0 800] ------- [0:0 4:0 30 4] [15 0] 1 0
s 1.251744698 _4_ AGT  --- 46 ack 40 [0 0 0 0] ------- [4:0 0:0 32 0] [15 0] 0 0
r 1.251744698 _4_ RTR  --- 46 ack 40 [0 0 0 0] ------- [4:0 0:0 32 0] [15 0] 0 0
s 1.251744698 _4_ RTR  --- 46 ack 40 [0 0 0 0] ------- [4:0 0:0 30 0] [15 0] 0 0
r 1.253788921 _0_ AGT  --- 46 ack 40 [13a 0 4 800] ------- [4:0 0:0 30 0] [15 0] 1 0
s 1.253788921 _0_ AGT  --- 47 tcp 1540 [0 0 0 0] ------- [0:0 4:0 32 0] [31 0] 0 0
r 1.253788921 _0_ RTR  --- 47 tcp 1540 [0 0 0 0] ------- [0:0 4:0 32 0] [31 0] 0 0
s 1.253788921 _0_ AGT  --- 48 tcp 1540 [0 0 0 0] ------- [0:0 4:0 32 0] [32 0] 0 0
r 1.253788921 _0_ RTR  --- 48 tcp 1540 [0 0 0 0] ------- [0:0 4:0 32 0] [32 0] 0 0
s 1.253788921 _0_ RTR  --- 47 tcp 1540 [0 0 0 0] ------- [0:0 4:0 30 4] [31 0] 0 0
s 1.253788921 _0_ RTR  --- 48 tcp 1540 [0 0 0 0] ------- [0:0 4:0 30 4] [32 0] 0 0
r 1.267713144 _4_ AGT  --- 24 tcp 1540 [13a 4 0 800] ------- [0:0 4:0 30 4] [16 0] 1 0
s 1.267713144 _4_ AGT  --- 49 ack 40 [0 0 0 0] ------- [4:0 0:0 32 0] [16 0] 0 0
r 1.267713144 _4_ RTR  --- 49 ack 40 [0 0 0 0] ------- [4:0 0:0 32 0] [16 0] 0 0
s 1.267713144 _4_ RTR  --- 49 ack 40 [0 0 0 0] ------- [4:0 0:0 30 0] [16 0] 0 0
r 1.269597368 _0_ AGT  --- 49 ack 40 [13a 0 4 800] ------- [4:0 0:0 30 0] [16 0] 1 0
s 1.269597368 _0_ AGT  --- 50 tcp 1540 [0 0 0 0] ------- [0:0 4:0 32 0] [33 0] 0 0
r 1.269597368 _0_ RTR  --- 50 tcp 1540 [0 0 0 0] ------- [0:0 4:0 32 0] [33 0] 0 0
s 1.269597368 _0_ AGT  --- 51 tcp 1540 [0 0 0 0] ------- [0:0 4:0 32 0] [34 0] 0 0
r 1.269597368 _0_ RTR  --- 51 tcp 1540 [0 0 0 0] ------- [0:0 4:0 32 0] [34 0] 0 0
s 1.269597368 _0_ RTR  --- 50 tcp 1540 [0 0 0 0] ------- [0:0 4:0 30 4] [33 0] 0 0
s 1.269597368 _0_ RTR  --- 51 tcp 1540 [0 0 0 0] ------- [0:0 4:0 30 4] [34 0] 0 0
r 1.283581591 _4_ AGT  --- 27 tcp 1540 [13a 4 0 800] ------- [0:0 4:0 30 4] [17 0] 1 0
s 1.283581591 _4_ AGT  --- 52 ack 40 [0 0 0 0] ------- [4:0 0:0 32 0] [17 0] 0 0
r 1.283581591 _4_ RTR  --- 52 ack 40 [0 0 0 0] ------- [4:0 0:0 32 0] [17 0] 0 0
s 1.283581591 _4_ RTR  --- 52 ack 40 [0 0 0 0] ------- [4:0 0:0 30 0] [17 0] 0 0
r 1.297405890 _4_ AGT  --- 28 tcp 1540 [13a 4 0 800] ------- [0:0 4:0 30 4] [18 0] 1 0
s 1.297405890 _4_ AGT  --- 53 ack 40 [0 0 0 0] ------- [4:0 0:0 32 0] [18 0] 0 0
r 1.297405890 _4_ RTR  --- 53 ack 40 [0 0 0 0] ------- [4:0 0:0 32 0] [18 0] 0 0
s 1.297405890 _4_ RTR  --- 53 ack 40 [0 0 0 0] ------- [4:0 0:0 30 0] [18 0] 0 0
r 1.311470189 _4_ AGT  --- 32 tcp 1540 [13a 4 0 800] ------- [0:0 4:0 30 4] [19 0] 1 0
s 1.311470189 _4_ AGT  --- 54 ack 40 [0 0 0 0] ------- [4:0 0:0 32 0] [19 0] 0 0
r 1.311470189 _4_ RTR  --- 54 ack 40 [0 0 0 0] ------- [4:0 0:0 32 0] [19 0] 0 0
s 1.311470189 _4_ RTR  --- 54 ack 40 [0 0 0 0] ------- [4:0 0:0 30 0] [19 0] 0 0
r 1.313354413 _0_ AGT  --- 52 ack 40 [13a 0 4 800] ------- [4:0 0:0 30 0] [17 0] 1 0
s 1.313354413 _0_ AGT  --- 55 tcp 1540 [0 0 0 0] ------- [0:0 4:0 32 0] [35 0] 0 0
r 1.313354413 _0_ RTR  --- 55 tcp 1540 [0 0 0 0] ------- [0:0 4:0 32 0] [35 0] 0 0
s 1.313354413 _0_ AGT  --- 56 tcp 1540 [0 0 0 0] ------- [0:0 4:0 32 0] [36 0] 0 0
r 1.313354413 _0_ RTR  --- 56 tcp 1540 [0 0 0 0] ------- [0:0 4:0 32 0] [36 0] 0 0
s 1.313354413 _0_ RTR  --- 55 tcp 1540 [0 0 0 0] ------- [0:0 4:0 30 4] [35 0] 0 0
s 1.313354413 _0_ RTR  --- 56 tcp 1540 [0 0 0 0] ------- [0:0 4:0 30 4] [36 0] 0 0
r 1.327418638 _4_ AGT  --- 33 tcp 1540 [13a 4 0 800] ------- [0:0 4:0 30 4] [20 0] 1 0
s 1.327418638 _4_ AGT  --- 57 ack 40 [0 0 0 0] ------- [4:0 0:0 32 0] [20 0] 0 0
r 1.327418638 _4_ RTR  --- 57 ack 40 [0 0 0 0] ------- [4:0 0:0 32 0] [20 0] 0 0
s 1.327418638 _4_ RTR  --- 57 ack 40 [0 0 0 0] ------- [4:0 0:0 30 0] [20 0] 0 0
r 1.341262939 _4_ AGT  --- 34 tcp 1540 [13a 4 0 800] ------- [0:0 4:0 30 4] [21 0] 1 0
s 1.341262939 _4_ AGT  --- 58 ack 40 [0 0 0 0] ------- [4:0 0:0 32 0] [21 0] 0 0
r 1.341262939 _4_ RTR  --- 58 ack 40 [0 0 0 0] ------- [4:0 0:0 32 0] [21 0] 0 0
s 1.341262939 _4_ RTR  --- 58 ack 40 [0 0 0 0] ------- [4:0 0:0 30 0] [21 0] 0 0
r 1.343107164 _0_ AGT  --- 53 ack 40 [13a 0 4 800] ------- [4:0 0:0 30 0] [18 0] 1 0
s 1.343107164 _0_ AGT  --- 59 tcp 1540 [0 0 0 0] ------- [0:0 4:0 32 0] [37 0] 0 0
r 1.343107164 _0_ RTR  --- 59 tcp 1540 [0 0 0 0] ------- [0:0 4:0 32 0] [37 0] 0 0
s 1.343107164 _0_ AGT  --- 60 tcp 1540 [0 0 0 0] ------- [0:0 4:0 32 0] [38 0] 0 0
r 1.343107164 _0_ RTR  --- 60 tcp 1540 [0 0 0 0] ------- [0:0 4:0 32 0] [38 0] 0 0
s 1.343107164 _0_ RTR  --- 59 tcp 1540 [0 0 0 0] ------- [0:0 4:0 30 4] [37 0] 0 0
s 1.343107164 _0_ RTR  --- 60 tcp 1540 [0 0 0 0] ------- [0:0 4:0 30 4] [38 0] 0 0
r 1.345171465 _0_ AGT  --- 54 ack 40 [13a 0 4 800] ------- [4:0 0:0 30 0] [19 0] 1 0
s 1.345171465 _0_ AGT  --- 61 tcp 1540 [0 0 0 0] ------- [0:0 4:0 32 0] [39 0] 0 0
r 1.345171465 _0_ RTR  --- 61 tcp 1540 [0 0 0 0] ------- [0:0 4:0 32 0] [39 0] 0 0
s 1.345171465 _0_ RTR  --- 61 tcp 1540 [0 0 0 0] ------- [0:0 4:0 30 4] [39 0] 0 0
r 1.347115766 _0_ AGT  --- 57 ack 40 [13a 0 4 800] ------- [4:0 0:0 30 0] [20 0] 1 0
s 1.347115766 _0_ AGT  --- 62 tcp 1540 [0 0 0 0] ------- [0:0 4:0 32 0] [40 0] 0 0
r 1.347115766 _0_ RTR  --- 62 tcp 1540 [0 0 0 0] ------- [0:0 4:0 32 0] [40 0] 0 0
s 1.347115766 _0_ RTR  --- 62 tcp 1540 [0 0 0 0] ------- [0:0 4:0 30 4] [40 0] 0 0