n -t * -s 0  -x 444 -y 825 -Z 0 -z 25  -v circle -c black
n -t * -s 1  -x 545 -y 825 -Z 0 -z 25  -v circle -c black
n -t * -s 2  -x 21 -y 820 -Z 0 -z 25  -v circle -c black
n -t * -s 3  -x 926 -y 31 -Z 0 -z 25  -v circle -c black
n -t * -s 4  -x 426 -y 813 -Z 0 -z 25  -v circle -c black
n -t * -s 5  -x 181 -y 64 -Z 0 -z 25  -v circle -c black
n -t * -s 6  -x 436 -y 129 -Z 0 -z 25  -v circle -c black
n -t * -s 7  -x 121 -y 551 -Z 0 -z 25  -v circle -c black
n -t * -s 8  -x 843 -y 715 -Z 0 -z 25  -v circle -c black
n -t * -s 9  -x 855 -y 555 -Z 0 -z 25  -v circle -c black
n -t * -s 10  -x 568 -y 98 -Z 0 -z 25  -v circle -c black
n -t * -s 11  -x 789 -y 992 -Z 0 -z 25  -v circle -c black
n -t * -s 12  -x 132 -y 566 -Z 0 -z 25  -v circle -c black
n -t * -s 13  -x 946 -y 912 -Z 0 -z 25  -v circle -c black
n -t * -s 14  -x 456 -y 908 -Z 0 -z 25  -v circle -c black
n -t * -s 15  -x 806 -y 459 -Z 0 -z 25  -v circle -c black
n -t * -s 16  -x 132 -y 582 -Z 0 -z 25  -v circle -c black
n -t * -s 17  -x 841 -y 660 -Z 0 -z 25  -v circle -c black
n -t * -s 18  -x 281 -y 169 -Z 0 -z 25  -v circle -c black
n -t * -s 19  -x 862 -y 238 -Z 0 -z 25  -v circle -c black
V -t * -v 1.0a5 -a 0
W -t * -x 1000 -y 1000
A -t * -n 1 -p 0 -o 0x7fffffff -c 30 -a 1
A -t * -h 1 -m 1073741823 -s 0
n -t 1.000000 -s 0 -x 444.000000 -y 825.000000 -U 6.150880 -V -5.115337 -T 80.151127
n -t 1.000000 -s 1 -x 545.000000 -y 825.000000 -U -6.864912 -V -1.368568 -T 45.302836
n -t 1.000000 -s 2 -x 21.000000 -y 820.000000 -U 0.999186 -V 0.040347 -T 842.686181
n -t 1.000000 -s 3 -x 926.000000 -y 31.000000 -U -0.302578 -V 5.992366 -T 152.026770
n -t 1.000000 -s 4 -x 426.000000 -y 813.000000 -U -0.000000 -V 0.000000 -T 0.000000
n -t 1.000000 -s 5 -x 181.000000 -y 64.000000 -U 0.836160 -V 2.881117 -T 220.053529
n -t 1.000000 -s 6 -x 436.000000 -y 129.000000 -U 0.068925 -V 1.998812 -T 159.594799
n -t 1.000000 -s 7 -x 121.000000 -y 551.000000 -U 1.436023 -V -1.392063 -T 68.244047
n -t 1.000000 -s 8 -x 843.000000 -y 715.000000 -U -6.220563 -V -3.210077 -T 120.246346
n -t 1.000000 -s 9 -x 855.000000 -y 555.000000 -U -4.754595 -V 1.547199 -T 115.046599
n -t 1.000000 -s 10 -x 568.000000 -y 98.000000 -U 0.476156 -V 2.961972 -T 285.620572
n -t 1.000000 -s 11 -x 789.000000 -y 992.000000 -U -1.727558 -V -1.007742 -T 13.892444
n -t 1.000000 -s 12 -x 132.000000 -y 566.000000 -U 2.658708 -V -2.988523 -T 148.568377
n -t 1.000000 -s 13 -x 946.000000 -y 912.000000 -U -2.144073 -V -9.767443 -T 12.592855
n -t 1.000000 -s 14 -x 456.000000 -y 908.000000 -U 0.712505 -V -8.971752 -T 68.771405
n -t 1.000000 -s 15 -x 806.000000 -y 459.000000 -U -7.424673 -V 2.978965 -T 87.950004
n -t 1.000000 -s 16 -x 132.000000 -y 582.000000 -U 5.903962 -V 1.069221 -T 21.510979
n -t 1.000000 -s 17 -x 841.000000 -y 660.000000 -U -1.868833 -V -3.536589 -T 84.544737
n -t 1.000000 -s 18 -x 281.000000 -y 169.000000 -U -0.426837 -V 5.984798 -T 110.112316
n -t 1.000000 -s 19 -x 862.000000 -y 238.000000 -U 3.318487 -V 7.279261 -T 18.683214
+ -t 1.000000000 -s 0 -d -1 -p tcp -e 40 -c 2 -a 0 -i 0 -k AGT 
- -t 1.000000000 -s 0 -d -1 -p tcp -e 40 -c 2 -a 0 -i 0 -k AGT
h -t 1.000000000 -s 0 -d -1 -p tcp -e 40 -c 2 -a 0 -i 0 -k AGT
+ -t 1.000000000 -s 0 -d -1 -p AODV -e 48 -c 2 -a 0 -i 0 -k RTR 
- -t 1.000000000 -s 0 -d -1 -p AODV -e 48 -c 2 -a 0 -i 0 -k RTR
h -t 1.000000000 -s 0 -d -1 -p AODV -e 48 -c 2 -a 0 -i 0 -k RTR
r -t 1.000988072 -s 4 -d -1 -p AODV -e 48 -c 2 -a 0 -i 0 -k RTR
+ -t 1.000988072 -s 4 -d 0 -p AODV -e 44 -c 2 -a 0 -i 0 -k RTR 
- -t 1.000988072 -s 4 -d 0 -p AODV -e 44 -c 2 -a 0 -i 0 -k RTR
h -t 1.000988072 -s 4 -d 0 -p AODV -e 44 -c 2 -a 0 -i 0 -k RTR
r -t 1.000988280 -s 14 -d -1 -p AODV -e 48 -c 2 -a 0 -i 0 -k RTR
r -t 1.000988337 -s 1 -d -1 -p AODV -e 48 -c 2 -a 0 -i 0 -k RTR
+ -t 1.001869506 -s 14 -d -1 -p AODV -e 48 -c 2 -a 0 -i 0 -k RTR 
- -t 1.001869506 -s 14 -d -1 -p AODV -e 48 -c 2 -a 0 -i 0 -k RTR
h -t 1.001869506 -s 14 -d -1 -p AODV -e 48 -c 2 -a 0 -i 0 -k RTR
r -t 1.003017786 -s 0 -d -1 -p AODV -e 48 -c 2 -a 0 -i 0 -k RTR
r -t 1.003017838 -s 4 -d -1 -p AODV -e 48 -c 2 -a 0 -i 0 -k RTR
r -t 1.003017912 -s 1 -d -1 -p AODV -e 48 -c 2 -a 0 -i 0 -k RTR
+ -t 1.005400070 -s 1 -d -1 -p AODV -e 48 -c 2 -a 0 -i 0 -k RTR 
- -t 1.005400070 -s 1 -d -1 -p AODV -e 48 -c 2 -a 0 -i 0 -k RTR
h -t 1.005400070 -s 1 -d -1 -p AODV -e 48 -c 2 -a 0 -i 0 -k RTR
+ -t 1.006828219 -s 0 -d 4 -p tcp -e 40 -c 2 -a 0 -i 0 -k RTR 
- -t 1.006828219 -s 0 -d 4 -p tcp -e 40 -c 2 -a 0 -i 0 -k RTR
h -t 1.006828219 -s 0 -d 4 -p tcp -e 40 -c 2 -a 0 -i 0 -k RTR
r -t 1.008692435 -s 4 -d 4 -p tcp -e 40 -c 2 -a 0 -i 0 -k AGT
+ -t 1.008692435 -s 4 -d -1 -p ack -e 40 -c 2 -a 0 -i 1 -k AGT 
- -t 1.008692435 -s 4 -d -1 -p ack -e 40 -c 2 -a 0 -i 1 -k AGT
h -t 1.008692435 -s 4 -d -1 -p ack -e 40 -c 2 -a 0 -i 1 -k AGT
+ -t 1.008692435 -s 4 -d 0 -p ack -e 40 -c 2 -a 0 -i 1 -k RTR 
- -t 1.008692435 -s 4 -d 0 -p ack -e 40 -c 2 -a 0 -i 1 -k RTR
h -t 1.008692435 -s 4 -d 0 -p ack -e 40 -c 2 -a 0 -i 1 -k RTR
r -t 1.010125170 -s 0 -d -1 -p AODV -e 48 -c 2 -a 0 -i 0 -k RTR
r -t 1.010125232 -s 4 -d -1 -p AODV -e 48 -c 2 -a 0 -i 0 -k RTR
r -t 1.010125239 -s 14 -d -1 -p AODV -e 48 -c 2 -a 0 -i 0 -k RTR
r -t 1.011915449 -s 0 -d 0 -p ack -e 40 -c 2 -a 0 -i 1 -k AGT
+ -t 1.011915449 -s 0 -d -1 -p tcp -e 1540 -c 2 -a 0 -i 2 -k AGT 
- -t 1.011915449 -s 0 -d -1 -p tcp -e 1540 -c 2 -a 0 -i 2 -k AGT
h -t 1.011915449 -s 0 -d -1 -p tcp -e 1540 -c 2 -a 0 -i 2 -k AGT
+ -t 1.011915449 -s 0 -d -1 -p tcp -e 1540 -c 2 -a 0 -i 3 -k AGT 
- -t 1.011915449 -s 0 -d -1 -p tcp -e 1540 -c 2 -a 0 -i 3 -k AGT
h -t 1.011915449 -s 0 -d -1 -p tcp -e 1540 -c 2 -a 0 -i 3 -k AGT
+ -t 1.011915449 -s 0 -d 4 -p tcp -e 1540 -c 2 -a 0 -i 2 -k RTR 
- -t 1.011915449 -s 0 -d 4 -p tcp -e 1540 -c 2 -a 0 -i 2 -k RTR
h -t 1.011915449 -s 0 -d 4 -p tcp -e 1540 -c 2 -a 0 -i 2 -k RTR
+ -t 1.011915449 -s 0 -d 4 -p tcp -e 1540 -c 2 -a 0 -i 3 -k RTR 
- -t 1.011915449 -s 0 -d 4 -p tcp -e 1540 -c 2 -a 0 -i 3 -k RTR
h -t 1.011915449 -s 0 -d 4 -p tcp -e 1540 -c 2 -a 0 -i 3 -k RTR
r -t 1.025979665 -s 4 -d 4 -p tcp -e 1540 -c 2 -a 0 -i 2 -k AGT
+ -t 1.025979665 -s 4 -d -1 -p ack -e 40 -c 2 -a 0 -i 4 -k AGT 
- -t 1.025979665 -s 4 -d -1 -p ack -e 40 -c 2 -a 0 -i 4 -k AGT
h -t 1.025979665 -s 4 -d -1 -p ack -e 40 -c 2 -a 0 -i 4 -k AGT
+ -t 1.025979665 -s 4 -d 0 -p ack -e 40 -c 2 -a 0 -i 4 -k RTR 
- -t 1.025979665 -s 4 -d 0 -p ack -e 40 -c 2 -a 0 -i 4 -k RTR
h -t 1.025979665 -s 4 -d 0 -p ack -e 40 -c 2 -a 0 -i 4 -k RTR
r -t 1.040143955 -s 4 -d 4 -p tcp -e 1540 -c 2 -a 0 -i 3 -k AGT
+ -t 1.040143955 -s 4 -d -1 -p ack -e 40 -c 2 -a 0 -i 5 -k AGT 
- -t 1.040143955 -s 4 -d -1 -p ack -e 40 -c 2 -a 0 -i 5 -k AGT
h -t 1.040143955 -s 4 -d -1 -p ack -e 40 -c 2 -a 0 -i 5 -k AGT
+ -t 1.040143955 -s 4 -d 0 -p ack -e 40 -c 2 -a 0 -i 5 -k RTR 
- -t 1.040143955 -s 4 -d 0 -p ack -e 40 -c 2 -a 0 -i 5 -k RTR
h -t 1.040143955 -s 4 -d 0 -p ack -e 40 -c 2 -a 0 -i 5 -k RTR
r -t 1.042108172 -s 0 -d 0 -p ack -e 40 -c 2 -a 0 -i 4 -k AGT
+ -t 1.042108172 -s 0 -d -1 -p tcp -e 1540 -c 2 -a 0 -i 6 -k AGT 
- -t 1.042108172 -s 0 -d -1 -p tcp -e 1540 -c 2 -a 0 -i 6 -k AGT
h -t 1.042108172 -s 0 -d -1 -p tcp -e 1540 -c 2 -a 0 -i 6 -k AGT
+ -t 1.042108172 -s 0 -d -1 -p tcp -e 1540 -c 2 -a 0 -i 7 -k AGT 
- -t 1.042108172 -s 0 -d -1 -p tcp -e 1540 -c 2 -a 0 -i 7 -k AGT
h -t 1.042108172 -s 0 -d -1 -p tcp -e 1540 -c 2 -a 0 -i 7 -k AGT
+ -t 1.042108172 -s 0 -d 4 -p tcp -e 1540 -c 2 -a 0 -i 6 -k RTR 
- -t 1.042108172 -s 0 -d 4 -p tcp -e 1540 -c 2 -a 0 -i 6 -k RTR
h -t 1.042108172 -s 0 -d 4 -p tcp -e 1540 -c 2 -a 0 -i 6 -k RTR
+ -t 1.042108172 -s 0 -d 4 -p tcp -e 1540 -c 2 -a 0 -i 7 -k RTR 
- -t 1.042108172 -s 0 -d 4 -p tcp -e 1540 -c 2 -a 0 -i 7 -k RTR
h -t 1.042108172 -s 0 -d 4 -p tcp -e 1540 -c 2 -a 0 -i 7 -k RTR
r -t 1.056112389 -s 4 -d 4 -p tcp -e 1540 -c 2 -a 0 -i 6 -k AGT
+ -t 1.056112389 -s 4 -d -1 -p ack -e 40 -c 2 -a 0 -i 8 -k AGT 
- -t 1.056112389 -s 4 -d -1 -p ack -e 40 -c 2 -a 0 -i 8 -k AGT
h -t 1.056112389 -s 4 -d -1 -p ack -e 40 -c 2 -a 0 -i 8 -k AGT
+ -t 1.056112389 -s 4 -d 0 -p ack -e 40 -c 2 -a 0 -i 8 -k RTR 
- -t 1.056112389 -s 4 -d 0 -p ack -e 40 -c 2 -a 0 -i 8 -k RTR
h -t 1.056112389 -s 4 -d 0 -p ack -e 40 -c 2 -a 0 -i 8 -k RTR
r -t 1.057956607 -s 0 -d 0 -p ack -e 40 -c 2 -a 0 -i 5 -k AGT
+ -t 1.057956607 -s 0 -d -1 -p tcp -e 1540 -c 2 -a 0 -i 9 -k AGT 
- -t 1.057956607 -s 0 -d -1 -p tcp -e 1540 -c 2 -a 0 -i 9 -k AGT
h -t 1.057956607 -s 0 -d -1 -p tcp -e 1540 -c 2 -a 0 -i 9 -k AGT
+ -t 1.057956607 -s 0 -d -1 -p tcp -e 1540 -c 2 -a 0 -i 10 -k AGT 
- -t 1.057956607 -s 0 -d -1 -p tcp -e 1540 -c 2 -a 0 -i 10 -k AGT
h -t 1.057956607 -s 0 -d -1 -p tcp -e 1540 -c 2 -a 0 -i 10 -k AGT
+ -t 1.057956607 -s 0 -d 4 -p tcp -e 1540 -c 2 -a 0 -i 9 -k RTR 
- -t 1.057956607 -s 0 -d 4 -p tcp -e 1540 -c 2 -a 0 -i 9 -k RTR
h -t 1.057956607 -s 0 -d 4 -p tcp -e 1540 -c 2 -a 0 -i 9 -k RTR
+ -t 1.057956607 -s 0 -d 4 -p tcp -e 1540 -c 2 -a 0 -i 10 -k RTR 
- -t 1.057956607 -s 0 -d 4 -p tcp -e 1540 -c 2 -a 0 -i 10 -k RTR
h -t 1.057956607 -s 0 -d 4 -p tcp -e 1540 -c 2 -a 0 -i 10 -k RTR
r -t 1.059800897 -s 0 -d 0 -p ack -e 40 -c 2 -a 0 -i 8 -k AGT
+ -t 1.059800897 -s 0 -d -1 -p tcp -e 1540 -c 2 -a 0 -i 11 -k AGT 
- -t 1.059800897 -s 0 -d -1 -p tcp -e 1540 -c 2 -a 0 -i 11 -k AGT
h -t 1.059800897 -s 0 -d -1 -p tcp -e 1540 -c 2 -a 0 -i 11 -k AGT
+ -t 1.059800897 -s 0 -d -1 -p tcp -e 1540 -c 2 -a 0 -i 12 -k AGT 
- -t 1.059800897 -s 0 -d -1 -p tcp -e 1540 -c 2 -a 0 -i 12 -k AGT
h -t 1.059800897 -s 0 -d -1 -p tcp -e 1540 -c 2 -a 0 -i 12 -k AGT
+ -t 1.059800897 -s 0 -d 4 -p tcp -e 1540 -c 2 -a 0 -i 11 -k RTR 
- -t 1.059800897 -s 0 -d 4 -p tcp -e 1540 -c 2 -a 0 -i 11 -k RTR
h -t 1.059800897 -s 0 -d 4 -p tcp -e 1540 -c 2 -a 0 -i 11 -k RTR
+ -t 1.059800897 -s 0 -d 4 -p tcp -e 1540 -c 2 -a 0 -i 12 -k RTR 
- -t 1.059800897 -s 0 -d 4 -p tcp -e 1540 -c 2 -a 0 -i 12 -k RTR
h -t 1.059800897 -s 0 -d 4 -p tcp -e 1540 -c 2 -a 0 -i 12 -k RTR
r -t 1.073805115 -s 4 -d 4 -p tcp -e 1540 -c 2 -a 0 -i 7 -k AGT
+ -t 1.073805115 -s 4 -d -1 -p ack -e 40 -c 2 -a 0 -i 13 -k AGT 
- -t 1.073805115 -s 4 -d -1 -p ack -e 40 -c 2 -a 0 -i 13 -k AGT
h -t 1.073805115 -s 4 -d -1 -p ack -e 40 -c 2 -a 0 -i 13 -k AGT
+ -t 1.073805115 -s 4 -d 0 -p ack -e 40 -c 2 -a 0 -i 13 -k RTR 
- -t 1.073805115 -s 4 -d 0 -p ack -e 40 -c 2 -a 0 -i 13 -k RTR
h -t 1.073805115 -s 4 -d 0 -p ack -e 40 -c 2 -a 0 -i 13 -k RTR
r -t 1.075689333 -s 0 -d 0 -p ack -e 40 -c 2 -a 0 -i 13 -k AGT
+ -t 1.075689333 -s 0 -d -1 -p tcp -e 1540 -c 2 -a 0 -i 14 -k AGT 
- -t 1.075689333 -s 0 -d -1 -p tcp -e 1540 -c 2 -a 0 -i 14 -k AGT
h -t 1.075689333 -s 0 -d -1 -p tcp -e 1540 -c 2 -a 0 -i 14 -k AGT
+ -t 1.075689333 -s 0 -d -1 -p tcp -e 1540 -c 2 -a 0 -i 15 -k AGT 
- -t 1.075689333 -s 0 -d -1 -p tcp -e 1540 -c 2 -a 0 -i 15 -k AGT
h -t 1.075689333 -s 0 -d -1 -p tcp -e 1540 -c 2 -a 0 -i 15 -k AGT
+ -t 1.075689333 -s 0 -d 4 -p tcp -e 1540 -c 2 -a 0 -i 14 -k RTR 
- -t 1.075689333 -s 0 -d 4 -p tcp -e 1540 -c 2 -a 0 -i 14 -k RTR
h -t 1.075689333 -s 0 -d 4 -p tcp -e 1540 -c 2 -a 0 -i 14 -k RTR
+ -t 1.075689333 -s 0 -d 4 -p tcp -e 1540 -c 2 -a 0 -i 15 -k RTR 
- -t 1.075689333 -s 0 -d 4 -p tcp -e 1540 -c 2 -a 0 -i 15 -k RTR
h -t 1.075689333 -s 0 -d 4 -p tcp -e 1540 -c 2 -a 0 -i 15 -k RTR
r -t 1.089893551 -s 4 -d 4 -p tcp -e 1540 -c 2 -a 0 -i 9 -k AGT
+ -t 1.089893551 -s 4 -d -1 -p ack -e 40 -c 2 -a 0 -i 16 -k AGT 
- -t 1.089893551 -s 4 -d -1 -p ack -e 40 -c 2 -a 0 -i 16 -k AGT
h -t 1.089893551 -s 4 -d -1 -p ack -e 40 -c 2 -a 0 -i 16 -k AGT
+ -t 1.089893551 -s 4 -d 0 -p ack -e 40 -c 2 -a 0 -i 16 -k RTR 
- -t 1.089893551 -s 4 -d 0 -p ack -e 40 -c 2 -a 0 -i 16 -k RTR
h -t 1.089893551 -s 4 -d 0 -p ack -e 40 -c 2 -a 0 -i 16 -k RTR
r -t 1.104117843 -s 4 -d 4 -p tcp -e 1540 -c 2 -a 0 -i 10 -k AGT
+ -t 1.104117843 -s 4 -d -1 -p ack -e 40 -c 2 -a 0 -i 17 -k AGT 
- -t 1.104117843 -s 4 -d -1 -p ack -e 40 -c 2 -a 0 -i 17 -k AGT
h -t 1.104117843 -s 4 -d -1 -p ack -e 40 -c 2 -a 0 -i 17 -k AGT
+ -t 1.104117843 -s 4 -d 0 -p ack -e 40 -c 2 -a 0 -i 17 -k RTR 
- -t 1.104117843 -s 4 -d 0 -p ack -e 40 -c 2 -a 0 -i 17 -k RTR
h -t 1.104117843 -s 4 -d 0 -p ack -e 40 -c 2 -a 0 -i 17 -k RTR
r -t 1.106122061 -s 0 -d 0 -p ack -e 40 -c 2 -a 0 -i 16 -k AGT
+ -t 1.106122061 -s 0 -d -1 -p tcp -e 1540 -c 2 -a 0 -i 18 -k AGT 
- -t 1.106122061 -s 0 -d -1 -p tcp -e 1540 -c 2 -a 0 -i 18 -k AGT
h -t 1.106122061 -s 0 -d -1 -p tcp -e 1540 -c 2 -a 0 -i 18 -k AGT
+ -t 1.106122061 -s 0 -d -1 -p tcp -e 1540 -c 2 -a 0 -i 19 -k AGT 
- -t 1.106122061 -s 0 -d -1 -p tcp -e 1540 -c 2 -a 0 -i 19 -k AGT
h -t 1.106122061 -s 0 -d -1 -p tcp -e 1540 -c 2 -a 0 -i 19 -k AGT
+ -t 1.106122061 -s 0 -d 4 -p tcp -e 1540 -c 2 -a 0 -i 18 -k RTR 
- -t 1.106122061 -s 0 -d 4 -p tcp -e 1540 -c 2 -a 0 -i 18 -k RTR
h -t 1.106122061 -s 0 -d 4 -p tcp -e 1540 -c 2 -a 0 -i 18 -k RTR
+ -t 1.106122061 -s 0 -d 4 -p tcp -e 1540 -c 2 -a 0 -i 19 -k RTR 
- -t 1.106122061 -s 0 -d 4 -p tcp -e 1540 -c 2 -a 0 -i 19 -k RTR
h -t 1.106122061 -s 0 -d 4 -p tcp -e 1540 -c 2 -a 0 -i 19 -k RTR
r -t 1.122092426 -s 4 -d 4 -p tcp -e 1540 -c 2 -a 0 -i 11 -k AGT
+ -t 1.122092426 -s 4 -d -1 -p ack -e 40 -c 2 -a 0 -i 20 -k AGT 
- -t 1.122092426 -s 4 -d -1 -p ack -e 40 -c 2 -a 0 -i 20 -k AGT
h -t 1.122092426 -s 4 -d -1 -p ack -e 40 -c 2 -a 0 -i 20 -k AGT
+ -t 1.122092426 -s 4 -d 0 -p ack -e 40 -c 2 -a 0 -i 20 -k RTR 
- -t 1.122092426 -s 4 -d 0 -p ack -e 40 -c 2 -a 0 -i 20 -k RTR
h -t 1.122092426 -s 4 -d 0 -p ack -e 40 -c 2 -a 0 -i 20 -k RTR
r -t 1.124016646 -s 0 -d 0 -p ack -e 40 -c 2 -a 0 -i 17 -k AGT
+ -t 1.124016646 -s 0 -d -1 -p tcp -e 1540 -c 2 -a 0 -i 21 -k AGT 
- -t 1.124016646 -s 0 -d -1 -p tcp -e 1540 -c 2 -a 0 -i 21 -k AGT
h -t 1.124016646 -s 0 -d -1 -p tcp -e 1540 -c 2 -a 0 -i 21 -k AGT
+ -t 1.124016646 -s 0 -d -1 -p tcp -e 1540 -c 2 -a 0 -i 22 -k AGT 
- -t 1.124016646 -s 0 -d -1 -p tcp -e 1540 -c 2 -a 0 -i 22 -k AGT
h -t 1.124016646 -s 0 -d -1 -p tcp -e 1540 -c 2 -a 0 -i 22 -k AGT
+ -t 1.124016646 -s 0 -d 4 -p tcp -e 1540 -c 2 -a 0 -i 21 -k RTR 
- -t 1.124016646 -s 0 -d 4 -p tcp -e 1540 -c 2 -a 0 -i 21 -k RTR
h -t 1.124016646 -s 0 -d 4 -p tcp -e 1540 -c 2 -a 0 -i 21 -k RTR
+ -t 1.124016646 -s 0 -d 4 -p tcp -e 1540 -c 2 -a 0 -i 22 -k RTR 
- -t 1.124016646 -s 0 -d 4 -p tcp -e 1540 -c 2 -a 0 -i 22 -k RTR
h -t 1.124016646 -s 0 -d 4 -p tcp -e 1540 -c 2 -a 0 -i 22 -k RTR
r -t 1.125980938 -s 0 -d 0 -p ack -e 40 -c 2 -a 0 -i 20 -k AGT
+ -t 1.125980938 -s 0 -d -1 -p tcp -e 1540 -c 2 -a 0 -i 23 -k AGT 
- -t 1.125980938 -s 0 -d -1 -p tcp -e 1540 -c 2 -a 0 -i 23 -k AGT
h -t 1.125980938 -s 0 -d -1 -p tcp -e 1540 -c 2 -a 0 -i 23 -k AGT
+ -t 1.125980938 -s 0 -d -1 -p tcp -e 1540 -c 2 -a 0 -i 24 -k AGT 
- -t 1.125980938 -s 0 -d -1 -p tcp -e 1540 -c 2 -a 0 -i 24 -k AGT
h -t 1.125980938 -s 0 -d -1 -p tcp -e 1540 -c 2 -a 0 -i 24 -k AGT
+ -t 1.125980938 -s 0 -d 4 -p tcp -e 1540 -c 2 -a 0 -i 23 -k RTR 
- -t 1.125980938 -s 0 -d 4 -p tcp -e 1540 -c 2 -a 0 -i 23 -k RTR
h -t 1.125980938 -s 0 -d 4 -p tcp -e 1540 -c 2 -a 0 -i 23 -k RTR
+ -t 1.125980938 -s 0 -d 4 -p tcp -e 1540 -c 2 -a 0 -i 24 -k RTR 
- -t 1.125980938 -s 0 -d 4 -p tcp -e 1540 -c 2 -a 0 -i 24 -k RTR
h -t 1.125980938 -s 0 -d 4 -p tcp -e 1540 -c 2 -a 0 -i 24 -k RTR
r -t 1.139925158 -s 4 -d 4 -p tcp -e 1540 -c 2 -a 0 -i 12 -k AGT
+ -t 1.139925158 -s 4 -d -1 -p ack -e 40 -c 2 -a 0 -i 25 -k AGT 
- -t 1.139925158 -s 4 -d -1 -p ack -e 40 -c 2 -a 0 -i 25 -k AGT
h -t 1.139925158 -s 4 -d -1 -p ack -e 40 -c 2 -a 0 -i 25 -k AGT
+ -t 1.139925158 -s 4 -d 0 -p ack -e 40 -c 2 -a 0 -i 25 -k RTR 
- -t 1.139925158 -s 4 -d 0 -p ack -e 40 -c 2 -a 0 -i 25 -k RTR
h -t 1.139925158 -s 4 -d 0 -p ack -e 40 -c 2 -a 0 -i 25 -k RTR
r -t 1.153949451 -s 4 -d 4 -p tcp -e 1540 -c 2 -a 0 -i 14 -k AGT
+ -t 1.153949451 -s 4 -d -1 -p ack -e 40 -c 2 -a 0 -i 26 -k AGT 
- -t 1.153949451 -s 4 -d -1 -p ack -e 40 -c 2 -a 0 -i 26 -k AGT
h -t 1.153949451 -s 4 -d -1 -p ack -e 40 -c 2 -a 0 -i 26 -k AGT
+ -t 1.153949451 -s 4 -d 0 -p ack -e 40 -c 2 -a 0 -i 26 -k RTR 
- -t 1.153949451 -s 4 -d 0 -p ack -e 40 -c 2 -a 0 -i 26 -k RTR
h -t 1.153949451 -s 4 -d 0 -p ack -e 40 -c 2 -a 0 -i 26 -k RTR
r -t 1.155853671 -s 0 -d 0 -p ack -e 40 -c 2 -a 0 -i 25 -k AGT
+ -t 1.155853671 -s 0 -d -1 -p tcp -e 1540 -c 2 -a 0 -i 27 -k AGT 
- -t 1.155853671 -s 0 -d -1 -p tcp -e 1540 -c 2 -a 0 -i 27 -k AGT
h -t 1.155853671 -s 0 -d -1 -p tcp -e 1540 -c 2 -a 0 -i 27 -k AGT
+ -t 1.155853671 -s 0 -d -1 -p tcp -e 1540 -c 2 -a 0 -i 28 -k AGT 
- -t 1.155853671 -s 0 -d -1 -p tcp -e 1540 -c 2 -a 0 -i 28 -k AGT
h -t 1.155853671 -s 0 -d -1 -p tcp -e 1540 -c 2 -a 0 -i 28 -k AGT
+ -t 1.155853671 -s 0 -d 4 -p tcp -e 1540 -c 2 -a 0 -i 27 -k RTR 
- -t 1.155853671 -s 0 -d 4 -p tcp -e 1540 -c 2 -a 0 -i 27 -k RTR
h -t 1.155853671 -s 0 -d 4 -p tcp -e 1540 -c 2 -a 0 -i 27 -k RTR
+ -t 1.155853671 -s 0 -d 4 -p tcp -e 1540 -c 2 -a 0 -i 28 -k RTR 
- -t 1.155853671 -s 0 -d 4 -p tcp -e 1540 -c 2 -a 0 -i 28 -k RTR
h -t 1.155853671 -s 0 -d 4 -p tcp -e 1540 -c 2 -a 0 -i 28 -k RTR
r -t 1.169697891 -s 4 -d 4 -p tcp -e 1540 -c 2 -a 0 -i 15 -k AGT
+ -t 1.169697891 -s 4 -d -1 -p ack -e 40 -c 2 -a 0 -i 29 -k AGT 
- -t 1.169697891 -s 4 -d -1 -p ack -e 40 -c 2 -a 0 -i 29 -k AGT
h -t 1.169697891 -s 4 -d -1 -p ack -e 40 -c 2 -a 0 -i 29 -k AGT
+ -t 1.169697891 -s 4 -d 0 -p ack -e 40 -c 2 -a 0 -i 29 -k RTR 
- -t 1.169697891 -s 4 -d 0 -p ack -e 40 -c 2 -a 0 -i 29 -k RTR
h -t 1.169697891 -s 4 -d 0 -p ack -e 40 -c 2 -a 0 -i 29 -k RTR
r -t 1.183742185 -s 4 -d 4 -p tcp -e 1540 -c 2 -a 0 -i 18 -k AGT
+ -t 1.183742185 -s 4 -d -1 -p ack -e 40 -c 2 -a 0 -i 30 -k AGT 
- -t 1.183742185 -s 4 -d -1 -p ack -e 40 -c 2 -a 0 -i 30 -k AGT
h -t 1.183742185 -s 4 -d -1 -p ack -e 40 -c 2 -a 0 -i 30 -k AGT
+ -t 1.183742185 -s 4 -d 0 -p ack -e 40 -c 2 -a 0 -i 30 -k RTR 
- -t 1.183742185 -s 4 -d 0 -p ack -e 40 -c 2 -a 0 -i 30 -k RTR
h -t 1.183742185 -s 4 -d 0 -p ack -e 40 -c 2 -a 0 -i 30 -k RTR
r -t 1.197766480 -s 4 -d 4 -p tcp -e 1540 -c 2 -a 0 -i 19 -k AGT
+ -t 1.197766480 -s 4 -d -1 -p ack -e 40 -c 2 -a 0 -i 31 -k AGT 
- -t 1.197766480 -s 4 -d -1 -p ack -e 40 -c 2 -a 0 -i 31 -k AGT
h -t 1.197766480 -s 4 -d -1 -p ack -e 40 -c 2 -a 0 -i 31 -k AGT
+ -t 1.197766480 -s 4 -d 0 -p ack -e 40 -c 2 -a 0 -i 31 -k RTR 
- -t 1.197766480 -s 4 -d 0 -p ack -e 40 -c 2 -a 0 -i 31 -k RTR
h -t 1.197766480 -s 4 -d 0 -p ack -e 40 -c 2 -a 0 -i 31 -k RTR
r -t 1.199670701 -s 0 -d 0 -p ack -e 40 -c 2 -a 0 -i 26 -k AGT
+ -t 1.199670701 -s 0 -d -1 -p tcp -e 1540 -c 2 -a 0 -i 32 -k AGT 
- -t 1.199670701 -s 0 -d -1 -p tcp -e 1540 -c 2 -a 0 -i 32 -k AGT
h -t 1.199670701 -s 0 -d -1 -p tcp -e 1540 -c 2 -a 0 -i 32 -k AGT
+ -t 1.199670701 -s 0 -d -1 -p tcp -e 1540 -c 2 -a 0 -i 33 -k AGT 
- -t 1.199670701 -s 0 -d -1 -p tcp -e 1540 -c 2 -a 0 -i 33 -k AGT
h -t 1.199670701 -s 0 -d -1 -p tcp -e 1540 -c 2 -a 0 -i 33 -k AGT
+ -t 1.199670701 -s 0 -d 4 -p tcp -e 1540 -c 2 -a 0 -i 32 -k RTR 
- -t 1.199670701 -s 0 -d 4 -p tcp -e 1540 -c 2 -a 0 -i 32 -k RTR
h -t 1.199670701 -s 0 -d 4 -p tcp -e 1540 -c 2 -a 0 -i 32 -k RTR
+ -t 1.199670701 -s 0 -d 4 -p tcp -e 1540 -c 2 -a 0 -i 33 -k RTR 
- -t 1.199670701 -s 0 -d 4 -p tcp -e 1540 -c 2 -a 0 -i 33 -k RTR
h -t 1.199670701 -s 0 -d 4 -p tcp -e 1540 -c 2 -a 0 -i 33 -k RTR
r -t 1.201554997 -s 0 -d 0 -p ack -e 40 -c 2 -a 0 -i 29 -k AGT
+ -t 1.201554997 -s 0 -d -1 -p tcp -e 1540 -c 2 -a 0 -i 34 -k AGT 
- -t 1.201554997 -s 0 -d -1 -p tcp -e 1540 -c 2 -a 0 -i 34 -k AGT
h -t 1.201554997 -s 0 -d -1 -p tcp -e 1540 -c 2 -a 0 -i 34 -k AGT
+ -t 1.201554997 -s 0 -d -1 -p tcp -e 1540 -c 2 -a 0 -i 35 -k AGT 
- -t 1.201554997 -s 0 -d -1 -p tcp -e 1540 -c 2 -a 0 -i 35 -k AGT
h -t 1.201554997 -s 0 -d -1 -p tcp -e 1540 -c 2 -a 0 -i 35 -k AGT
+ -t 1.201554997 -s 0 -d 4 -p tcp -e 1540 -c 2 -a 0 -i 34 -k RTR 
- -t 1.201554997 -s 0 -d 4 -p tcp -e 1540 -c 2 -a 0 -i 34 -k RTR
h -t 1.201554997 -s 0 -d 4 -p tcp -e 1540 -c 2 -a 0 -i 34 -k RTR
+ -t 1.201554997 -s 0 -d 4 -p tcp -e 1540 -c 2 -a 0 -i 35 -k RTR 
- -t 1.201554997 -s 0 -d 4 -p tcp -e 1540 -c 2 -a 0 -i 35 -k RTR
h -t 1.201554997 -s 0 -d 4 -p tcp -e 1540 -c 2 -a 0 -i 35 -k RTR
r -t 1.203499292 -s 0 -d 0 -p ack -e 40 -c 2 -a 0 -i 30 -k AGT
+ -t 1.203499292 -s 0 -d -1 -p tcp -e 1540 -c 2 -a 0 -i 36 -k AGT 
- -t 1.203499292 -s 0 -d -1 -p tcp -e 1540 -c 2 -a 0 -i 36 -k AGT
h -t 1.203499292 -s 0 -d -1 -p tcp -e 1540 -c 2 -a 0 -i 36 -k AGT
+ -t 1.203499292 -s 0 -d -1 -p tcp -e 1540 -c 2 -a 0 -i 37 -k AGT 
- -t 1.203499292 -s 0 -d -1 -p tcp -e 1540 -c 2 -a 0 -i 37 -k AGT
h -t 1.203499292 -s 0 -d -1 -p tcp -e 1540 -c 2 -a 0 -i 37 -k AGT
+ -t 1.203499292 -s 0 -d 4 -p tcp -e 1540 -c 2 -a 0 -i 36 -k RTR 
- -t 1.203499292 -s 0 -d 4 -p tcp -e 1540 -c 2 -a 0 -i 36 -k RTR
h -t 1.203499292 -s 0 -d 4 -p tcp -e 1540 -c 2 -a 0 -i 36 -k RTR
+ -t 1.203499292 -s 0 -d 4 -p tcp -e 1540 -c 2 -a 0 -i 37 -k RTR 
- -t 1.203499292 -s 0 -d 4 -p tcp -e 1540 -c 2 -a 0 -i 37 -k RTR
h -t 1.203499292 -s 0 -d 4 -p tcp -e 1540 -c 2 -a 0 -i 37 -k RTR
r -t 1.217643513 -s 4 -d 4 -p tcp -e 1540 -c 2 -a 0 -i 21 -k AGT
+ -t 1.217643513 -s 4 -d -1 -p ack -e 40 -c 2 -a 0 -i 38 -k AGT 
- -t 1.217643513 -s 4 -d -1 -p ack -e 40 -c 2 -a 0 -i 38 -k AGT
h -t 1.217643513 -s 4 -d -1 -p ack -e 40 -c 2 -a 0 -i 38 -k AGT
+ -t 1.217643513 -s 4 -d 0 -p ack -e 40 -c 2 -a 0 -i 38 -k RTR 
- -t 1.217643513 -s 4 -d 0 -p ack -e 40 -c 2 -a 0 -i 38 -k RTR
h -t 1.217643513 -s 4 -d 0 -p ack -e 40 -c 2 -a 0 -i 38 -k RTR
r -t 1.219487735 -s 0 -d 0 -p ack -e 40 -c 2 -a 0 -i 31 -k AGT
+ -t 1.219487735 -s 0 -d -1 -p tcp -e 1540 -c 2 -a 0 -i 39 -k AGT 
- -t 1.219487735 -s 0 -d -1 -p tcp -e 1540 -c 2 -a 0 -i 39 -k AGT
h -t 1.219487735 -s 0 -d -1 -p tcp -e 1540 -c 2 -a 0 -i 39 -k AGT
+ -t 1.219487735 -s 0 -d -1 -p tcp -e 1540 -c 2 -a 0 -i 40 -k AGT 
- -t 1.219487735 -s 0 -d -1 -p tcp -e 1540 -c 2 -a 0 -i 40 -k AGT
h -t 1.219487735 -s 0 -d -1 -p tcp -e 1540 -c 2 -a 0 -i 40 -k AGT
+ -t 1.219487735 -s 0 -d 4 -p tcp -e 1540 -c 2 -a 0 -i 39 -k RTR 
- -t 1.219487735 -s 0 -d 4 -p tcp -e 1540 -c 2 -a 0 -i 39 -k RTR
h -t 1.219487735 -s 0 -d 4 -p tcp -e 1540 -c 2 -a 0 -i 39 -k RTR
+ -t 1.219487735 -s 0 -d 4 -p tcp -e 1540 -c 2 -a 0 -i 40 -k RTR 
- -t 1.219487735 -s 0 -d 4 -p tcp -e 1540 -c 2 -a 0 -i 40 -k RTR
h -t 1.219487735 -s 0 -d 4 -p tcp -e 1540 -c 2 -a 0 -i 40 -k RTR
r -t 1.221592031 -s 0 -d 0 -p ack -e 40 -c 2 -a 0 -i 38 -k AGT
+ -t 1.221592031 -s 0 -d -1 -p tcp -e 1540 -c 2 -a 0 -i 41 -k AGT 
- -t 1.221592031 -s 0 -d -1 -p tcp -e 1540 -c 2 -a 0 -i 41 -k AGT
h -t 1.221592031 -s 0 -d -1 -p tcp -e 1540 -c 2 -a 0 -i 41 -k AGT
+ -t 1.221592031 -s 0 -d -1 -p tcp -e 1540 -c 2 -a 0 -i 42 -k AGT 
- -t 1.221592031 -s 0 -d -1 -p tcp -e 1540 -c 2 -a 0 -i 42 -k AGT
h -t 1.221592031 -s 0 -d -1 -p tcp -e 1540 -c 2 -a 0 -i 42 -k AGT
+ -t 1.221592031 -s 0 -d 4 -p tcp -e 1540 -c 2 -a 0 -i 41 -k RTR 
- -t 1.221592031 -s 0 -d 4 -p tcp -e 1540 -c 2 -a 0 -i 41 -k RTR
h -t 1.221592031 -s 0 -d 4 -p tcp -e 1540 -c 2 -a 0 -i 41 -k RTR
+ -t 1.221592031 -s 0 -d 4 -p tcp -e 1540 -c 2 -a 0 -i 42 -k RTR 
- -t 1.221592031 -s 0 -d 4 -p tcp -e 1540 -c 2 -a 0 -i 42 -k RTR
h -t 1.221592031 -s 0 -d 4 -p tcp -e 1540 -c 2 -a 0 -i 42 -k RTR
r -t 1.235616253 -s 4 -d 4 -p tcp -e 1540 -c 2 -a 0 -i 22 -k AGT
+ -t 1.235616253 -s 4 -d -1 -p ack -e 40 -c 2 -a 0 -i 43 -k AGT 
- -t 1.235616253 -s 4 -d -1 -p ack -e 40 -c 2 -a 0 -i 43 -k AGT
h -t 1.235616253 -s 4 -d -1 -p ack -e 40 -c 2 -a 0 -i 43 -k AGT
+ -t 1.235616253 -s 4 -d 0 -p ack -e 40 -c 2 -a 0 -i 43 -k RTR 
- -t 1.235616253 -s 4 -d 0 -p ack -e 40 -c 2 -a 0 -i 43 -k RTR
h -t 1.235616253 -s 4 -d 0 -p ack -e 40 -c 2 -a 0 -i 43 -k RTR
r -t 1.237720476 -s 0 -d 0 -p ack -e 40 -c 2 -a 0 -i 43 -k AGT
+ -t 1.237720476 -s 0 -d -1 -p tcp -e 1540 -c 2 -a 0 -i 44 -k AGT 
- -t 1.237720476 -s 0 -d -1 -p tcp -e 1540 -c 2 -a 0 -i 44 -k AGT
h -t 1.237720476 -s 0 -d -1 -p tcp -e 1540 -c 2 -a 0 -i 44 -k AGT
+ -t 1.237720476 -s 0 -d -1 -p tcp -e 1540 -c 2 -a 0 -i 45 -k AGT 
- -t 1.237720476 -s 0 -d -1 -p tcp -e 1540 -c 2 -a 0 -i 45 -k AGT
h -t 1.237720476 -s 0 -d -1 -p tcp -e 1540 -c 2 -a 0 -i 45 -k AGT
+ -t 1.237720476 -s 0 -d 4 -p tcp -e 1540 -c 2 -a 0 -i 44 -k RTR 
- -t 1.237720476 -s 0 -d 4 -p tcp -e 1540 -c 2 -a 0 -i 44 -k RTR
h -t 1.237720476 -s 0 -d 4 -p tcp -e 1540 -c 2 -a 0 -i 44 -k RTR
+ -t 1.237720476 -s 0 -d 4 -p tcp -e 1540 -c 2 -a 0 -i 45 -k RTR 
- -t 1.237720476 -s 0 -d 4 -p tcp -e 1540 -c 2 -a 0 -i 45 -k RTR
h -t 1.237720476 -s 0 -d 4 -p tcp -e 1540 -c 2 -a 0 -i 45 -k RTR
r -t 1.251744698 -s 4 -d 4 -p tcp -e 1540 -c 2 -a 0 -i 23 -k AGT
+ -t 1.251744698 -s 4 -d -1 -p ack -e 40 -c 2 -a 0 -i 46 -k AGT 
- -t 1.251744698 -s 4 -d -1 -p ack -e 40 -c 2 -a 0 -i 46 -k AGT
h -t 1.251744698 -s 4 -d -1 -p ack -e 40 -c 2 -a 0 -i 46 -k AGT
+ -t 1.251744698 -s 4 -d 0 -p ack -e 40 -c 2 -a 0 -i 46 -k RTR 
- -t 1.251744698 -s 4 -d 0 -p ack -e 40 -c 2 -a 0 -i 46 -k RTR
h -t 1.251744698 -s 4 -d 0 -p ack -e 40 -c 2 -a 0 -i 46 -k RTR
r -t 1.253788921 -s 0 -d 0 -p ack -e 40 -c 2 -a 0 -i 46 -k AGT
+ -t 1.253788921 -s 0 -d -1 -p tcp -e 1540 -c 2 -a 0 -i 47 -k AGT 
- -t 1.253788921 -s 0 -d -1 -p tcp -e 1540 -c 2 -a 0 -i 47 -k AGT
h -t 1.253788921 -s 0 -d -1 -p tcp -e 1540 -c 2 -a 0 -i 47 -k AGT
+ -t 1.253788921 -s 0 -d -1 -p tcp -e 1540 -c 2 -a 0 -i 48 -k AGT 
- -t 1.253788921 -s 0 -d -1 -p tcp -e 1540 -c 2 -a 0 -i 48 -k AGT
h -t 1.253788921 -s 0 -d -1 -p tcp -e 1540 -c 2 -a 0 -i 48 -k AGT
+ -t 1.253788921 -s 0 -d 4 -p tcp -e 1540 -c 2 -a 0 -i 47 -k RTR 
- -t 1.253788921 -s 0 -d 4 -p tcp -e 1540 -c 2 -a 0 -i 47 -k RTR
h -t 1.253788921 -s 0 -d 4 -p tcp -e 1540 -c 2 -a 0 -i 47 -k RTR
+ -t 1.253788921 -s 0 -d 4 -p tcp -e 1540 -c 2 -a 0 -i 48 -k RTR 
- -t 1.253788921 -s 0 -d 4 -p tcp -e 1540 -c 2 -a 0 -i 48 -k RTR
h -t 1.253788921 -s 0 -d 4 -p tcp -e 1540 -c 2 -a 0 -i 48 -k RTR
r -t 1.267713144 -s 4 -d 4 -p tcp -e 1540 -c 2 -a 0 -i 24 -k AGT
+ -t 1.267713144 -s 4 -d -1 -p ack -e 40 -c 2 -a 0 -i 49 -k AGT 
- -t 1.267713144 -s 4 -d -1 -p ack -e 40 -c 2 -a 0 -i 49 -k AGT
h -t 1.267713144 -s 4 -d -1 -p ack -e 40 -c 2 -a 0 -i 49 -k AGT
+ -t 1.267713144 -s 4 -d 0 -p ack -e 40 -c 2 -a 0 -i 49 -k RTR 
- -t 1.267713144 -s 4 -d 0 -p ack -e 40 -c 2 -a 0 -i 49 -k RTR
h -t 1.267713144 -s 4 -d 0 -p ack -e 40 -c 2 -a 0 -i 49 -k RTR
r -t 1.269597368 -s 0 -d 0 -p ack -e 40 -c 2 -a 0 -i 49 -k AGT
+ -t 1.269597368 -s 0 -d -1 -p tcp -e 1540 -c 2 -a 0 -i 50 -k AGT 
- -t 1.269597368 -s 0 -d -1 -p tcp -e 1540 -c 2 -a 0 -i 50 -k AGT
h -t 1.269597368 -s 0 -d -1 -p tcp -e 1540 -c 2 -a 0 -i 50 -k AGT
+ -t 1.269597368 -s 0 -d -1 -p tcp -e 1540 -c 2 -a 0 -i 51 -k AGT 
- -t 1.269597368 -s 0 -d -1 -p tcp -e 1540 -c 2 -a 0 -i 51 -k AGT
h -t 1.269597368 -s 0 -d -1 -p tcp -e 1540 -c 2 -a 0 -i 51 -k AGT
+ -t 1.269597368 -s 0 -d 4 -p tcp -e 1540 -c 2 -a 0 -i 50 -k RTR 
- -t 1.269597368 -s 0 -d 4 -p tcp -e 1540 -c 2 -a 0 -i 50 -k RTR
h -t 1.269597368 -s 0 -d 4 -p tcp -e 1540 -c 2 -a 0 -i 50 -k RTR
+ -t 1.269597368 -s 0 -d 4 -p tcp -e 1540 -c 2 -a 0 -i 51 -k RTR 
- -t 1.269597368 -s 0 -d 4 -p tcp -e 1540 -c 2 -a 0 -i 51 -k RTR
h -t 1.269597368 -s 0 -d 4 -p tcp -e 1540 -c 2 -a 0 -i 51 -k RTR
r -t 1.283581591 -s 4 -d 4 -p tcp -e 1540 -c 2 -a 0 -i 27 -k AGT
+ -t 1.283581591 -s 4 -d -1 -p ack -e 40 -c 2 -a 0 -i 52 -k AGT 
- -t 1.283581591 -s 4 -d -1 -p ack -e 40 -c 2 -a 0 -i 52 -k AGT
h -t 1.283581591 -s 4 -d -1 -p ack -e 40 -c 2 -a 0 -i 52 -k AGT
+ -t 1.283581591 -s 4 -d 0 -p ack -e 40 -c 2 -a 0 -i 52 -k RTR 
- -t 1.283581591 -s 4 -d 0 -p ack -e 40 -c 2 -a 0 -i 52 -k RTR
h -t 1.283581591 -s 4 -d 0 -p ack -e 40 -c 2 -a 0 -i 52 -k RTR
r -t 1.297405890 -s 4 -d 4 -p tcp -e 1540 -c 2 -a 0 -i 28 -k AGT
+ -t 1.297405890 -s 4 -d -1 -p ack -e 40 -c 2 -a 0 -i 53 -k AGT 
- -t 1.297405890 -s 4 -d -1 -p ack -e 40 -c 2 -a 0 -i 53 -k AGT
h -t 1.297405890 -s 4 -d -1 -p ack -e 40 -c 2 -a 0 -i 53 -k AGT
+ -t 1.297405890 -s 4 -d 0 -p ack -e 40 -c 2 -a 0 -i 53 -k RTR 
- -t 1.297405890 -s 4 -d 0 -p ack -e 40 -c 2 -a 0 -i 53 -k RTR
h -t 1.297405890 -s 4 -d 0 -p ack -e 40 -c 2 -a 0 -i 53 -k RTR
r -t 1.311470189 -s 4 -d 4 -p tcp -e 1540 -c 2 -a 0 -i 32 -k AGT
+ -t 1.311470189 -s 4 -d -1 -p ack -e 40 -c 2 -a 0 -i 54 -k AGT 
- -t 1.311470189 -s 4 -d -1 -p ack -e 40 -c 2 -a 0 -i 54 -k AGT
h -t 1.311470189 -s 4 -d -1 -p ack -e 40 -c 2 -a 0 -i 54 -k AGT
+ -t 1.311470189 -s 4 -d 0 -p ack -e 40 -c 2 -a 0 -i 54 -k RTR 
- -t 1.311470189 -s 4 -d 0 -p ack -e 40 -c 2 -a 0 -i 54 -k RTR
h -t 1.311470189 -s 4 -d 0 -p ack -e 40 -c 2 -a 0 -i 54 -k RTR
r -t 1.313354413 -s 0 -d 0 -p ack -e 40 -c 2 -a 0 -i 52 -k AGT
+ -t 1.313354413 -s 0 -d -1 -p tcp -e 1540 -c 2 -a 0 -i 55 -k AGT 
- -t 1.313354413 -s 0 -d -1 -p tcp -e 1540 -c 2 -a 0 -i 55 -k AGT
h -t 1.313354413 -s 0 -d -1 -p tcp -e 1540 -c 2 -a 0 -i 55 -k AGT
+ -t 1.313354413 -s 0 -d -1 -p tcp -e 1540 -c 2 -a 0 -i 56 -k AGT 
- -t 1.313354413 -s 0 -d -1 -p tcp -e 1540 -c 2 -a 0 -i 56 -k AGT
h -t 1.313354413 -s 0 -d -1 -p tcp -e 1540 -c 2 -a 0 -i 56 -k AGT
+ -t 1.313354413 -s 0 -d 4 -p tcp -e 1540 -c 2 -a 0 -i 55 -k RTR 
- -t 1.313354413 -s 0 -d 4 -p tcp -e 1540 -c 2 -a 0 -i 55 -k RTR
h -t 1.313354413 -s 0 -d 4 -p tcp -e 1540 -c 2 -a 0 -i 55 -k RTR
+ -t 1.313354413 -s 0 -d 4 -p tcp -e 1540 -c 2 -a 0 -i 56 -k RTR 
- -t 1.313354413 -s 0 -d 4 -p tcp -e 1540 -c 2 -a 0 -i 56 -k RTR
h -t 1.313354413 -s 0 -d 4 -p tcp -e 1540 -c 2 -a 0 -i 56 -k RTR
r -t 1.327418638 -s 4 -d 4 -p tcp -e 1540 -c 2 -a 0 -i 33 -k AGT
+ -t 1.327418638 -s 4 -d -1 -p ack -e 40 -c 2 -a 0 -i 57 -k AGT 
- -t 1.327418638 -s 4 -d -1 -p ack -e 40 -c 2 -a 0 -i 57 -k AGT
h -t 1.327418638 -s 4 -d -1 -p ack -e 40 -c 2 -a 0 -i 57 -k AGT
+ -t 1.327418638 -s 4 -d 0 -p ack -e 40 -c 2 -a 0 -i 57 -k RTR 
- -t 1.327418638 -s 4 -d 0 -p ack -e 40 -c 2 -a 0 -i 57 -k RTR
h -t 1.327418638 -s 4 -d 0 -p ack -e 40 -c 2 -a 0 -i 57 -k RTR
r -t 1.341262939 -s 4 -d 4 -p tcp -e 1540 -c 2 -a 0 -i 34 -k AGT
+ -t 1.341262939 -s 4 -d -1 -p ack -e 40 -c 2 -a 0 -i 58 -k AGT 
- -t 1.341262939 -s 4 -d -1 -p ack -e 40 -c 2 -a 0 -i 58 -k AGT
h -t 1.341262939 -s 4 -d -1 -p ack -e 40 -c 2 -a 0 -i 58 -k AGT
+ -t 1.341262939 -s 4 -d 0 -p ack -e 40 -c 2 -a 0 -i 58 -k RTR 
- -t 1.341262939 -s 4 -d 0 -p ack -e 40 -c 2 -a 0 -i 58 -k RTR
h -t 1.341262939 -s 4 -d 0 -p ack -e 40 -c 2 -a 0 -i 58 -k RTR
r -t 1.343107164 -s 0 -d 0 -p ack -e 40 -c 2 -a 0 -i 53 -k AGT
+ -t 1.343107164 -s 0 -d -1 -p tcp -e 1540 -c 2 -a 0 -i 59 -k AGT 