M 1.00000 0 (444.00, 825.00, 0.00), (937.00, 415.00), 8.00
M 1.00000 1 (545.00, 825.00, 0.00), (234.00, 763.00), 7.00
M 1.00000 2 (21.00, 820.00, 0.00), (863.00, 854.00), 1.00
M 1.00000 3 (926.00, 31.00, 0.00), (880.00, 942.00), 6.00
M 1.00000 4 (426.00, 813.00, 0.00), (17.00, 911.00), 0.00
M 1.00000 5 (181.00, 64.00, 0.00), (365.00, 698.00), 3.00
M 1.00000 6 (436.00, 129.00, 0.00), (447.00, 448.00), 2.00
M 1.00000 7 (121.00, 551.00, 0.00), (219.00, 456.00), 2.00
M 1.00000 8 (843.00, 715.00, 0.00), (95.00, 329.00), 7.00
M 1.00000 9 (855.00, 555.00, 0.00), (308.00, 733.00), 5.00
M 1.00000 10 (568.00, 98.00, 0.00), (704.00, 944.00), 3.00
M 1.00000 11 (789.00, 992.00, 0.00), (765.00, 978.00), 2.00
M 1.00000 12 (132.00, 566.00, 0.00), (527.00, 122.00), 4.00
M 1.00000 13 (946.00, 912.00, 0.00), (919.00, 789.00), 10.00
M 1.00000 14 (456.00, 908.00, 0.00), (505.00, 291.00), 9.00
M 1.00000 15 (806.00, 459.00, 0.00), (153.00, 721.00), 8.00
M 1.00000 16 (132.00, 582.00, 0.00), (259.00, 605.00), 6.00
M 1.00000 17 (841.00, 660.00, 0.00), (683.00, 361.00), 4.00
M 1.00000 18 (281.00, 169.00, 0.00), (234.00, 828.00), 6.00
M 1.00000 19 (862.00, 238.00, 0.00), (924.00, 374.00), 8.00
s 1.000000000 _0_ AGT  --- 0 tcp 40 [0 0 0 0] ------- [0:0 4:0 32 0] [0 0] 0 0
r 1.000000000 _0_ RTR  --- 0 tcp 40 [0 0 0 0] ------- [0:0 4:0 32 0] [0 0] 0 0
s 1.000000000 _0_ RTR  --- 0 AODV 48 [0 0 0 0] ------- [0:255 -1:255 30 0] [0x2 1 1 [4 0] [0 4]] (REQUEST)
r 1.000988072 _4_ RTR  --- 0 AODV 48 [0 ffffffff 0 800] ------- [0:255 -1:255 30 0] [0x2 1 1 [4 0] [0 4]] (REQUEST)
s 1.000988072 _4_ RTR  --- 0 AODV 44 [0 0 0 0] ------- [4:255 0:255 30 0] [0x4 1 [4 4] 10.000000] (REPLY)
r 1.000988280 _14_ RTR  --- 0 AODV 48 [0 ffffffff 0 800] ------- [0:255 -1:255 30 0] [0x2 1 1 [4 0] [0 4]] (REQUEST)
r 1.000988337 _1_ RTR  --- 0 AODV 48 [0 ffffffff 0 800] ------- [0:255 -1:255 30 0] [0x2 1 1 [4 0] [0 4]] (REQUEST)
s 1.001869506 _14_ RTR  --- 0 AODV 48 [0 ffffffff 0 800] ------- [14:255 -1:255 29 0] [0x2 2 1 [4 0] [0 4]] (REQUEST)
r 1.003017786 _0_ RTR  --- 0 AODV 48 [0 ffffffff e 800] ------- [14:255 -1:255 29 0] [0x2 2 1 [4 0] [0 4]] (REQUEST)
r 1.003017838 _4_ RTR  --- 0 AODV 48 [0 ffffffff e 800] ------- [14:255 -1:255 29 0] [0x2 2 1 [4 0] [0 4]] (REQUEST)
r 1.003017912 _1_ RTR  --- 0 AODV 48 [0 ffffffff e 800] ------- [14:255 -1:255 29 0] [0x2 2 1 [4 0] [0 4]] (REQUEST)
s 1.005400070 _1_ RTR  --- 0 AODV 48 [0 ffffffff 0 800] ------- [1:255 -1:255 29 0] [0x2 2 1 [4 0] [0 4]] (REQUEST)
r 1.006828219 _0_ RTR  --- 0 AODV 44 [13a 0 4 800] ------- [4:255 0:255 30 0] [0x4 1 [4 4] 10.000000] (REPLY)
s 1.006828219 _0_ RTR  --- 0 tcp 40 [0 0 0 0] ------- [0:0 4:0 30 4] [0 0] 0 0
r 1.008692435 _4_ AGT  --- 0 tcp 40 [13a 4 0 800] ------- [0:0 4:0 30 4] [0 0] 1 0
s 1.008692435 _4_ AGT  --- 1 ack 40 [0 0 0 0] ------- [4:0 0:0 32 0] [0 0] 0 0
r 1.008692435 _4_ RTR  --- 1 ack 40 [0 0 0 0] ------- [4:0 0:0 32 0] [0 0] 0 0
s 1.008692435 _4_ RTR  --- 1 ack 40 [0 0 0 0] ------- [4:0 0:0 30 0] [0 0] 0 0
r 1.010125170 _0_ RTR  --- 0 AODV 48 [0 ffffffff 1 800] ------- [1:255 -1:255 29 0] [0x2 2 1 [4 0] [0 4]] (REQUEST)
r 1.010125232 _4_ RTR  --- 0 AODV 48 [0 ffffffff 1 800] ------- [1:255 -1:255 29 0] [0x2 2 1 [4 0] [0 4]] (REQUEST)
r 1.010125239 _14_ RTR  --- 0 AODV 48 [0 ffffffff 1 800] ------- [1:255 -1:255 29 0] [0x2 2 1 [4 0] [0 4]] (REQUEST)
r 1.011915449 _0_ AGT  --- 1 ack 40 [13a 0 4 800] ------- [4:0 0:0 30 0] [0 0] 1 0
s 1.011915449 _0_ AGT  --- 2 tcp 1540 [0 0 0 0] ------- [0:0 4:0 32 0] [1 0] 0 0
r 1.011915449 _0_ RTR  --- 2 tcp 1540 [0 0 0 0] ------- [0:0 4:0 32 0] [1 0] 0 0
s 1.011915449 _0_ AGT  --- 3 tcp 1540 [0 0 0 0] ------- [0:0 4:0 32 0] [2 0] 0 0
r 1.011915449 _0_ RTR  --- 3 tcp 1540 [0 0 0 0] ------- [0:0 4:0 32 0] [2 0] 0 0
s 1.011915449 _0_ RTR  --- 2 tcp 1540 [0 0 0 0] ------- [0:0 4:0 30 4] [1 0] 0 0
s 1.011915449 _0_ RTR  --- 3 tcp 1540 [0 0 0 0] ------- [0:0 4:0 30 4] [2 0] 0 0
r 1.025979665 _4_ AGT  --- 2 tcp 1540 [13a 4 0 800] ------- [0:0 4:0 30 4] [1 0] 1 0
s 1.025979665 _4_ AGT  --- 4 ack 40 [0 0 0 0] ------- [4:0 0:0 32 0] [1 0] 0 0
r 1.025979665 _4_ RTR  --- 4 ack 40 [0 0 0 0] ------- [4:0 0:0 32 0] [1 0] 0 0
s 1.025979665 _4_ RTR  --- 4 ack 40 [0 0 0 0] ------- [4:0 0:0 30 0] [1 0] 0 0
r 1.040143955 _4_ AGT  --- 3 tcp 1540 [13a 4 0 800] ------- [0:0 4:0 30 4] [2 0] 1 0
s 1.040143955 _4_ AGT  --- 5 ack 40 [0 0 0 0] ------- [4:0 0:0 32 0] [2 0] 0 0
r 1.040143955 _4_ RTR  --- 5 ack 40 [0 0 0 0] ------- [4:0 0:0 32 0] [2 0] 0 0
s 1.040143955 _4_ RTR  --- 5 ack 40 [0 0 0 0] ------- [4:0 0:0 30 0] [2 0] 0 0
r 1.042108172 _0_ AGT  --- 4 ack 40 [13a 0 4 800] ------- [4:0 0:0 30 0] [1 0] 1 0
s 1.042108172 _0_ AGT  --- 6 tcp 1540 [0 0 0 0] ------- [0:0 4:0 32 0] [3 0] 0 0
r 1.042108172 _0_ RTR  --- 6 tcp 1540 [0 0 0 0] ------- [0:0 4:0 32 0] [3 0] 0 0
s 1.042108172 _0_ AGT  --- 7 tcp 1540 [0 0 0 0] ------- [0:0 4:0 32 0] [4 0] 0 0
r 1.042108172 _0_ RTR  --- 7 tcp 1540 [0 0 0 0] ------- [0:0 4:0 32 0] [4 0] 0 0
s 1.042108172 _0_ RTR  --- 6 tcp 1540 [0 0 0 0] ------- [0:0 4:0 30 4] [3 0] 0 0
s 1.042108172 _0_ RTR  --- 7 tcp 1540 [0 0 0 0] ------- [0:0 4:0 30 4] [4 0] 0 0
r 1.056112389 _4_ AGT  --- 6 tcp 1540 [13a 4 0 800] ------- [0:0 4:0 30 4] [3 0] 1 0
s 1.056112389 _4_ AGT  --- 8 ack 40 [0 0 0 0] ------- [4:0 0:0 32 0] [3 0] 0 0
r 1.056112389 _4_ RTR  --- 8 ack 40 [0 0 0 0] ------- [4:0 0:0 32 0] [3 0] 0 0
s 1.056112389 _4_ RTR  --- 8 ack 40 [0 0 0 0] ------- [4:0 0:0 30 0] [3 0] 0 0
r 1.057956607 _0_ AGT  --- 5 ack 40 [13a 0 4 800] ------- [4:0 0:0 30 0] [2 0] 1 0
s 1.057956607 _0_ AGT  --- 9 tcp 1540 [0 0 0 0] ------- [0:0 4:0 32 0] [5 0] 0 0
r 1.057956607 _0_ RTR  --- 9 tcp 1540 [0 0 0 0] ------- [0:0 4:0 32 0] [5 0] 0 0
s 1.057956607 _0_ AGT  --- 10 tcp 1540 [0 0 0 0] ------- [0:0 4:0 32 0] [6 0] 0 0
r 1.057956607 _0_ RTR  --- 10 tcp 1540 [0 0 0 0] ------- [0:0 4:0 32 0] [6 0] 0 0
s 1.057956607 _0_ RTR  --- 9 tcp 1540 [0 0 0 0] ------- [0:0 4:0 30 4] [5 0] 0 0
s 1.057956607 _0_ RTR  --- 10 tcp 1540 [0 0 0 0] ------- [0:0 4:0 30 4] [6 0] 0 0
r 1.059800897 _0_ AGT  --- 8 ack 40 [13a 0 4 800] ------- [4:0 0:0 30 0] [3 0] 1 0
s 1.059800897 _0_ AGT  --- 11 tcp 1540 [0 0 0 0] ------- [0:0 4:0 32 0] [7 0] 0 0
r 1.059800897 _0_ RTR  --- 11 tcp 1540 [0 0 0 0] ------- [0:0 4:0 32 0] [7 0] 0 0
s 1.059800897 _0_ AGT  --- 12 tcp 1540 [0 0 0 0] ------- [0:0 4:0 32 0] [8 0] 0 0
r 1.059800897 _0_ RTR  --- 12 tcp 1540 [0 0 0 0] ------- [0:0 4:0 32 0] [8 0] 0 0
s 1.059800897 _0_ RTR  --- 11 tcp 1540 [0 0 0 0] ------- [0:0 4:0 30 4] [7 0] 0 0
s 1.059800897 _0_ RTR  --- 12 tcp 1540 [0 0 0 0] ------- [0:0 4:0 30 4] [8 0] 0 0
r 1.073805115 _4_ AGT  --- 7 tcp 1540 [13a 4 0 800] ------- [0:0 4:0 30 4] [4 0] 1 0
s 1.073805115 _4_ AGT  --- 13 ack 40 [0 0 0 0] ------- [4:0 0:0 32 0] [4 0] 0 0
r 1.073805115 _4_ RTR  --- 13 ack 40 [0 0 0 0] ------- [4:0 0:0 32 0] [4 0] 0 0
s 1.073805115 _4_ RTR  --- 13 ack 40 [0 0 0 0] ------- [4:0 0:0 30 0] [4 0] 0 0
r 1.075689333 _0_ AGT  --- 13 ack 40 [13a 0 4 800] ------- [4:0 0:0 30 0] [4 0] 1 0
s 1.075689333 _0_ AGT  --- 14 tcp 1540 [0 0 0 0] ------- [0:0 4:0 32 0] [9 0] 0 0
r 1.075689333 _0_ RTR  --- 14 tcp 1540 [0 0 0 0] ------- [0:0 4:0 32 0] [9 0] 0 0
s 1.075689333 _0_ AGT  --- 15 tcp 1540 [0 0 0 0] ------- [0:0 4:0 32 0] [10 0] 0 0
r 1.075689333 _0_ RTR  --- 15 tcp 1540 [0 0 0 0] ------- [0:0 4:0 32 0] [10 0] 0 0
s 1.075689333 _0_ RTR  --- 14 tcp 1540 [0 0 0 0] ------- [0:0 4:0 30 4] [9 0] 0 0
s 1.075689333 _0_ RTR  --- 15 tcp 1540 [0 0 0 0] ------- [0:0 4:0 30 4] [10 0] 0 0
r 1.089893551 _4_ AGT  --- 9 tcp 1540 [13a 4 0 800] ------- [0:0 4:0 30 4] [5 0] 1 0
s 1.089893551 _4_ AGT  --- 16 ack 40 [0 0 0 0] ------- [4:0 0:0 32 0] [5 0] 0 0
r 1.089893551 _4_ RTR  --- 16 ack 40 [0 0 0 0] ------- [4:0 0:0 32 0] [5 0] 0 0
s 1.089893551 _4_ RTR  --- 16 ack 40 [0 0 0 0] ------- [4:0 0:0 30 0] [5 0] 0 0
r 1.104117843 _4_ AGT  --- 10 tcp 1540 [13a 4 0 800] ------- [0:0 4:0 30 4] [6 0] 1 0
s 1.104117843 _4_ AGT  --- 17 ack 40 [0 0 0 0] ------- [4:0 0:0 32 0] [6 0] 0 0
r 1.104117843 _4_ RTR  --- 17 ack 40 [0 0 0 0] ------- [4:0 0:0 32 0] [6 0] 0 0
s 1.104117843 _4_ RTR  --- 17 ack 40 [0 0 0 0] ------- [4:0 0:0 30 0] [6 0] 0 0
r 1.106122061 _0_ AGT  --- 16 ack 40 [13a 0 4 800] ------- [4:0 0:0 30 0] [5 0] 1 0
s 1.106122061 _0_ AGT  --- 18 tcp 1540 [0 0 0 0] ------- [0:0 4:0 32 0] [11 0] 0 0
r 1.106122061 _0_ RTR  --- 18 tcp 1540 [0 0 0 0] ------- [0:0 4:0 32 0] [11 0] 0 0
s 1.106122061 _0_ AGT  --- 19 tcp 1540 [0 0 0 0] ------- [0:0 4:0 32 0] [12 0] 0 0
r 1.106122061 _0_ RTR  --- 19 tcp 1540 [0 0 0 0] ------- [0:0 4:0 32 0] [12 0] 0 0
s 1.106122061 _0_ RTR  --- 18 tcp 1540 [0 0 0 0] ------- [0:0 4:0 30 4] [11 0] 0 0
s 1.106122061 _0_ RTR  --- 19 tcp 1540 [0 0 0 0] ------- [0:0 4:0 30 4] [12 0] 0 0
r 1.122092426 _4_ AGT  --- 11 tcp 1540 [13a 4 0 800] ------- [0:0 4:0 30 4] [7 0] 1 0
s 1.122092426 _4_ AGT  --- 20 ack 40 [0 0 0 0] ------- [4:0 0:0 32 0] [7 0] 0 0
r 1.122092426 _4_ RTR  --- 20 ack 40 [0 0 0 0] ------- [4:0 0:0 32 0] [7 0] 0 0
s 1.122092426 _4_ RTR  --- 20 ack 40 [0 0 0 0] ------- [4:0 0:0 30 0] [7 0] 0 0
r 1.124016646 _0_ AGT  --- 17 ack 40 [13a 0 4 800] ------- [4:0 0:0 30 0] [6 0] 1 0
s 1.124016646 _0_ AGT  --- 21 tcp 1540 [0 0 0 0] ------- [0:0 4:0 32 0] [13 0] 0 0
r 1.124016646 _0_ RTR  --- 21 tcp 1540 [0 0 0 0] ------- [0:0 4:0 32 0] [13 0] 0 0
s 1.124016646 _0_ AGT  --- 22 tcp 1540 [0 0 0 0] ------- [0:0 4:0 32 0] [14 0] 0 0
r 1.124016646 _0_ RTR  --- 22 tcp 1540 [0 0 0 0] ------- [0:0 4:0 32 0] [14 0] 0 0
s 1.124016646 _0_ RTR  --- 21 tcp 1540 [0 0 0 0] ------- [0:0 4:0 30 4] [13 0] 0 0
s 1.124016646 _0_ RTR  --- 22 tcp 1540 [0 0 0 0] ------- [0:0 4:0 30 4] [14 0] 0 0
r 1.125980938 _0_ AGT  --- 20 ack 40 [13a 0 4 800] ------- [4:0 0:0 30 0] [7 0] 1 0
s 1.125980938 _0_ AGT  --- 23 tcp 1540 [0 0 0 0] ------- [0:0 4:0 32 0] [15 0] 0 0
r 1.125980938 _0_ RTR  --- 23 tcp 1540 [0 0 0 0] ------- [0:0 4:0 32 0] [15 0] 0 0
s 1.125980938 _0_ AGT  --- 24 tcp 1540 [0 0 0 0] ------- [0:0 4:0 32 0] [16 0] 0 0
r 1.125980938 _0_ RTR  --- 24 tcp 1540 [0 0 0 0] ------- [0:0 4:0 32 0] [16 0] 0 0
s 1.125980938 _0_ RTR  --- 23 tcp 1540 [0 0 0 0] ------- [0:0 4:0 30 4] [15 0] 0 0
s 1.125980938 _0_ RTR  --- 24 tcp 1540 [0 0 0 0] ------- [0:0 4:0 30 4] [16 0] 0 0
r 1.139925158 _4_ AGT  --- 12 tcp 1540 [13a 4 0 800] ------- [0:0 4:0 30 4] [8 0] 1 0
s 1.139925158 _4_ AGT  --- 25 ack 40 [0 0 0 0] ------- [4:0 0:0 32 0] [8 0] 0 0
r 1.139925158 _4_ RTR  --- 25 ack 40 [0 0 0 0] ------- [4:0 0:0 32 0] [8 0] 0 0
s 1.139925158 _4_ RTR  --- 25 ack 40 [0 0 0 0] ------- [4:0 0:0 30 0] [8 0] 0 0
r 1.153949451 _4_ AGT  --- 14 tcp 1540 [13a 4 0 800] ------- [0:0 4:0 30 4] [9 0] 1 0
s 1.153949451 _4_ AGT  --- 26 ack 40 [0 0 0 0] ------- [4:0 0:0 32 0] [9 0] 0 0
r 1.153949451 _4_ RTR  --- 26 ack 40 [0 0 0 0] ------- [4:0 0:0 32 0] [9 0] 0 0
s 1.153949451 _4_ RTR  --- 26 ack 40 [0 0 0 0] ------- [4:0 0:0 30 0] [9 0] 0 0
r 1.155853671 _0_ AGT  --- 25 ack 40 [13a 0 4 800] ------- [4:0 0:0 30 0] [8 0] 1 0
s 1.155853671 _0_ AGT  --- 27 tcp 1540 [0 0 0 0] ------- [0:0 4:0 32 0] [17 0] 0 0
r 1.155853671 _0_ RTR  --- 27 tcp 1540 [0 0 0 0] ------- [0:0 4:0 32 0] [17 0] 0 0
s 1.155853671 _0_ AGT  --- 28 tcp 1540 [0 0 0 0] ------- [0:0 4:0 32 0] [18 0] 0 0
r 1.155853671 _0_ RTR  --- 28 tcp 1540 [0 0 0 0] ------- [0:0 4:0 32 0] [18 0] 0 0
s 1.155853671 _0_ RTR  --- 27 tcp 1540 [0 0 0 0] ------- [0:0 4:0 30 4] [17 0] 0 0
s 1.155853671 _0_ RTR  --- 28 tcp 1540 [0 0 0 0] ------- [0:0 4:0 30 4] [18 0] 0 0
r 1.169697891 _4_ AGT  --- 15 tcp 1540 [13a 4 0 800] ------- [0:0 4:0 30 4] [10 0] 1 0
s 1.169697891 _4_ AGT  --- 29 ack 40 [0 0 0 0] ------- [4:0 0:0 32 0] [10 0] 0 0
r 1.169697891 _4_ RTR  --- 29 ack 40 [0 0 0 0] ------- [4:0 0:0 32 0] [10 0] 0 0
s 1.169697891 _4_ RTR  --- 29 ack 40 [0 0 0 0] ------- [4:0 0:0 30 0] [10 0] 0 0
r 1.183742185 _4_ AGT  --- 18 tcp 1540 [13a 4 0 800] ------- [0:0 4:0 30 4] [11 0] 1 0
s 1.183742185 _4_ AGT  --- 30 ack 40 [0 0 0 0] ------- [4:0 0:0 32 0] [11 0] 0 0
r 1.183742185 _4_ RTR  --- 30 ack 40 [0 0 0 0] ------- [4:0 0:0 32 0] [11 0] 0 0
s 1.183742185 _4_ RTR  --- 30 ack 40 [0 0 0 0] ------- [4:0 0:0 30 0] [11 0] 0 0
r 1.197766480 _4_ AGT  --- 19 tcp 1540 [13a 4 0 800] ------- [0:0 4:0 30 4] [12 0] 1 0
s 1.197766480 _4_ AGT  --- 31 ack 40 [0 0 0 0] ------- [4:0 0:0 32 0] [12 0] 0 0
r 1.197766480 _4_ RTR  --- 31 ack 40 [0 0 0 0] ------- [4:0 0:0 32 0] [12 0] 0 0
s 1.197766480 _4_ RTR  --- 31 ack 40 [0 0 0 0] ------- [4:0 0:0 30 0] [12 0] 0 0
r 1.199670701 _0_ AGT  --- 26 ack 40 [13a 0 4 800] ------- [4:0 0:0 30 0] [9 0] 1 0
s 1.199670701 _0_ AGT  --- 32 tcp 1540 [0 0 0 0] ------- [0:0 4:0 32 0] [19 0] 0 0
r 1.199670701 _0_ RTR  --- 32 tcp 1540 [0 0 0 0] ------- [0:0 4:0 32 0] [19 0] 0 0
s 1.199670701 _0_ AGT  --- 33 tcp 1540 [0 0 0 0] ------- [0:0 4:0 32 0] [20 0] 0 0
r 1.199670701 _0_ RTR  --- 33 tcp 1540 [0 0 0 0] ------- [0:0 4:0 32 0] [20 0] 0 0
s 1.199670701 _0_ RTR  --- 32 tcp 1540 [0 0 0 0] ------- [0:0 4:0 30 4] [19 0] 0 0
s 1.199670701 _0_ RTR  --- 33 tcp 1540 [0 0 0 0] ------- [0:0 4:0 30 4] [20 0] 0 0
r 1.201554997 _0_ AGT  --- 29 ack 40 [13a 0 4 800] ------- [4:0 0:0 30 0] [10 0] 1 0
s 1.201554997 _0_ AGT  --- 34 tcp 1540 [0 0 0 0] ------- [0:0 4:0 32 0] [21 0] 0 0
r 1.201554997 _0_ RTR  --- 34 tcp 1540 [0 0 0 0] ------- [0:0 4:0 32 0] [21 0] 0 0
s 1.201554997 _0_ AGT  --- 35 tcp 1540 [0 0 0 0] ------- [0:0 4:0 32 0] [22 0] 0 0
r 1.201554997 _0_ RTR  --- 35 tcp 1540 [0 0 0 0] ------- [0:0 4:0 32 0] [22 0] 0 0
s 1.201554997 _0_ RTR  --- 34 tcp 1540 [0 0 0 0] ------- [0:0 4:0 30 4] [21 0] 0 0
s 1.201554997 _0_ RTR  --- 35 tcp 1540 [0 0 0 0] ------- [0:0 4:0 30 4] [22 0] 0 0
r 1.203499292 _0_ AGT  --- 30 ack 40 [13a 0 4 800] ------- [4:0 0:0 30 0] [11 0] 1 0
s 1.203499292 _0_ AGT  --- 36 tcp 1540 [0 0 0 0] ------- [0:0 4:0 32 0] [23 0] 0 0
r 1.203499292 _0_ RTR  --- 36 tcp 1540 [0 0 0 0] ------- [0:0 4:0 32 0] [23 0] 0 0
s 1.203499292 _0_ AGT  --- 37 tcp 1540 [0 0 0 0] ------- [0:0 4:0 32 0] [24 0] 0 0
r 1.203499292 _0_ RTR  --- 37 tcp 1540 [0 0 0 0] ------- [0:0 4:0 32 0] [24 0] 0 0
s 1.203499292 _0_ RTR  --- 36 tcp 1540 [0 0 0 0] ------- [0:0 4:0 30 4] [23 0] 0 0
s 1.203499292 _0_ RTR  --- 37 tcp 1540 [0 0 0 0] ------- [0:0 4:0 30 4] [24 0] 0 0
r 1.217643513 _4_ AGT  --- 21 tcp 1540 [13a 4 0 800] ------- [0:0 4:0 30 4] [13 0] 1 0
s 1.217643513 _4_ AGT  --- 38 ack 40 [0 0 0 0] ------- [4:0 0:0 32 0] [13 0] 0 0
r 1.217643513 _4_ RTR  --- 38 ack 40 [0 0 0 0] ------- [4:0 0:0 32 0] [13 0] 0 0
s 1.217643513 _4_ RTR  --- 38 ack 40 [0 0 0 0] ------- [4:0 0:0 30 0] [13 0] 0 0
r 1.219487735 _0_ AGT  --- 31 ack 40 [13a 0 4 800] ------- [4:0 0:0 30 0] [12 0] 1 0
s 1.219487735 _0_ AGT  --- 39 tcp 1540 [0 0 0 0] ------- [0:0 4:0 32 0] [25 0] 0 0
r 1.219487735 _0_ RTR  --- 39 tcp 1540 [0 0 0 0] ------- [0:0 4:0 32 0] [25 0] 0 0
s 1.219487735 _0_ AGT  --- 40 tcp 1540 [0 0 0 0] ------- [0:0 4:0 32 0] [26 0] 0 0
r 1.219487735 _0_ RTR  --- 40 tcp 1540 [0 0 0 0] ------- [0:0 4:0 32 0] [26 0] 0 0
s 1.219487735 _0_ RTR  --- 39 tcp 1540 [0 0 0 0] ------- [0:0 4:0 30 4] [25 0] 0 0
s 1.219487735 _0_ RTR  --- 40 tcp 1540 [0 0 0 0] ------- [0:0 4:0 30 4] [26 0] 0 0
r 1.221592031 _0_ AGT  --- 38 ack 40 [13a 0 4 800] ------- [4:0 0:0 30 0] [13 0] 1 0
s 1.221592031 _0_ AGT  --- 41 tcp 1540 [0 0 0 0] ------- [0:0 4:0 32 0] [27 0] 0 0
r 1.221592031 _0_ RTR  --- 41 tcp 1540 [0 0 0 0] ------- [0:0 4:0 32 0] [27 0] 0 0
s 1.221592031 _0_ AGT  --- 42 tcp 1540 [0 0 0 0] ------- [0:0 4:0 32 0] [28 0] 0 0
r 1.221592031 _0_ RTR  --- 42 tcp 1540 [0 0 0 0] ------- [0:0 4:0 32 0] [28 0] 0 0
s 1.221592031 _0_ RTR  --- 41 tcp 1540 [0 0 0 0] ------- [0:0 4:0 30 4] [27 0] 0 0
s 1.221592031 _0_ RTR  --- 42 tcp 1540 [0 0 0 0] ------- [0:0 4:0 30 4] [28 0] 0 0
r 1.235616253 _4_ AGT  --- 22 tcp 1540 [13a 4 0 800] ------- [0:0 4:0 30 4] [14 0] 1 0
s 1.235616253 _4_ AGT  --- 43 ack 40 [0 0 0 0] ------- [4:0 0:0 32 0] [14 0] 0 0
r 1.235616253 _4_ RTR  --- 43 ack 40 [0 0 0 0] ------- [4:0 0:0 32 0] [14 0] 0 0
s 1.235616253 _4_ RTR  --- 43 ack 40 [0 0 0 0] ------- [4:0 0:0 30 0] [14 0] 0 0
r 1.237720476 _0_ AGT  --- 43 ack 40 [13a 0 4 800] ------- [4:0 0:0 30 0] [14 0] 1 0
s 1.237720476 _0_ AGT  --- 44 tcp 1540 [0 0 0 0] ------- [0:0 4:0 32 0] [29 0] 0 0
r 1.237720476 _0_ RTR  --- 44 tcp 1540 [0 0 0 0] ------- [0:0 4:0 32 0] [29 0] 0 0
s 1.237720476 _0_ AGT  --- 45 tcp 1540 [0 0 0 0] ------- [0:0 4:0 32 0] [30 0] 0 0
r 1.237720476 _0_ RTR  --- 45 tcp 1540 [0 0 0 0] ------- [0:0 4:0 32 0] [30 0] 0 0
s 1.237720476 _0_ RTR  --- 44 tcp 1540 [0 0 0 0] ------- [0:0 4:0 30 4] [29 0] 0 0
s 1.237720476 _0_ RTR  --- 45 tcp 1540 [0 0 0 0] ------- [0:0 4:0 30 4] [30 0] 0 0
r 1.251744698 _4_ AGT  --- 23 tcp 1540 [13a 4 0 800] ------- [0:0 4:0 30 4] [15 0] 1 0
s 1.251744698 _4_ AGT  --- 46 ack 40 [0 0 0 0] ------- [4:0 0:0 32 0] [15 0] 0 0
r 1.251744698 _4_ RTR  --- 46 ack 40 [0 0 0 0] ------- [4:0 0:0 32 0] [15 0] 0 0
s 1.251744698 _4_ RTR  --- 46 ack 40 [0 0 0 0] ------- [4:0 0:0 30 0] [15 0] 0 0
r 1.253788921 _0_ AGT  --- 46 ack 40 [13a 0 4 800] ------- [4:0 0:0 30 0] [15 0] 1 0
s 1.253788921 _0_ AGT  --- 47 tcp 1540 [0 0 0 0] ------- [0:0 4:0 32 0] [31 0] 0 0
r 1.253788921 _0_ RTR  --- 47 tcp 1540 [0 0 0 0] ------- [0:0 4:0 32 0] [31 0] 0 0
s 1.253788921 _0_ AGT  --- 48 tcp 1540 [0 0 0 0] ------- [0:0 4:0 32 0] [32 0] 0 0
r 1.253788921 _0_ RTR  --- 48 tcp 1540 [0 0 0 0] ------- [0:0 4:0 32 0] [32 0] 0 0
s 1.253788921 _0_ RTR  --- 47 tcp 1540 [0 0 0 0] ------- [0:0 4:0 30 4] [31 0] 0 0
s 1.253788921 _0_ RTR  --- 48 tcp 1540 [0 0 0 0] ------- [0:0 4:0 30 4] [32 0] 0 0
r 1.267713144 _4_ AGT  --- 24 tcp 1540 [13a 4 0 800] ------- [0:0 4:0 30 4] [16 0] 1 0
s 1.267713144 _4_ AGT  --- 49 ack 40 [0 0 0 0] ------- [4:0 0:0 32 0] [16 0] 0 0
r 1.267713144 _4_ RTR  --- 49 ack 40 [0 0 0 0] ------- [4:0 0:0 32 0] [16 0] 0 0
s 1.267713144 _4_ RTR  --- 49 ack 40 [0 0 0 0] ------- [4:0 0:0 30 0] [16 0] 0 0
r 1.269597368 _0_ AGT  --- 49 ack 40 [13a 0 4 800] ------- [4:0 0:0 30 0] [16 0] 1 0
s 1.269597368 _0_ AGT  --- 50 tcp 1540 [0 0 0 0] ------- [0:0 4:0 32 0] [33 0] 0 0
r 1.269597368 _0_ RTR  --- 50 tcp 1540 [0 0 0 0] ------- [0:0 4:0 32 0] [33 0] 0 0
s 1.269597368 _0_ AGT  --- 51 tcp 1540 [0 0 0 0] ------- [0:0 4:0 32 0] [34 0] 0 0
r 1.269597368 _0_ RTR  --- 51 tcp 1540 [0 0 0 0] ------- [0:0 4:0 32 0] [34 0] 0 0
s 1.269597368 _0_ RTR  --- 50 tcp 1540 [0 0 0 0] ------- [0:0 4:0 30 4] [33 0] 0 0
s 1.269597368 _0_ RTR  --- 51 tcp 1540 [0 0 0 0] ------- [0:0 4:0 30 4] [34 0] 0 0
r 1.283581591 _4_ AGT  --- 27 tcp 1540 [13a 4 0 800] ------- [0:0 4:0 30 4] [17 0] 1 0
s 1.283581591 _4_ AGT  --- 52 ack 40 [0 0 0 0] ------- [4:0 0:0 32 0] [17 0] 0 0
r 1.283581591 _4_ RTR  --- 52 ack 40 [0 0 0 0] ------- [4:0 0:0 32 0] [17 0] 0 0
s 1.283581591 _4_ RTR  --- 52 ack 40 [0 0 0 0] ------- [4:0 0:0 30 0] [17 0] 0 0
r 1.297405890 _4_ AGT  --- 28 tcp 1540 [13a 4 0 800] ------- [0:0 4:0 30 4] [18 0] 1 0
s 1.297405890 _4_ AGT  --- 53 ack 40 [0 0 0 0] ------- [4:0 0:0 32 0] [18 0] 0 0
r 1.297405890 _4_ RTR  --- 53 ack 40 [0 0 0 0] ------- [4:0 0:0 32 0] [18 0] 0 0
s 1.297405890 _4_ RTR  --- 53 ack 40 [0 0 0 0] ------- [4:0 0:0 30 0] [18 0] 0 0
r 1.311470189 _4_ AGT  --- 32 tcp 1540 [13a 4 0 800] ------- [0:0 4:0 30 4] [19 0] 1 0
s 1.311470189 _4_ AGT  --- 54 ack 40 [0 0 0 0] ------- [4:0 0:0 32 0] [19 0] 0 0
r 1.311470189 _4_ RTR  --- 54 ack 40 [0 0 0 0] ------- [4:0 0:0 32 0] [19 0] 0 0
s 1.311470189 _4_ RTR  --- 54 ack 40 [0 0 0 0] ------- [4:0 0:0 30 0] [19 0] 0 0
r 1.313354413 _0_ AGT  --- 52 ack 40 [13a 0 4 800] ------- [4:0 0:0 30 0] [17 0] 1 0
s 1.313354413 _0_ AGT  --- 55 tcp 1540 [0 0 0 0] ------- [0:0 4:0 32 0] [35 0] 0 0
r 1.313354413 _0_ RTR  --- 55 tcp 1540 [0 0 0 0] ------- [0:0 4:0 32 0] [35 0] 0 0
s 1.313354413 _0_ AGT  --- 56 tcp 1540 [0 0 0 0] ------- [0:0 4:0 32 0] [36 0] 0 0
r 1.313354413 _0_ RTR  --- 56 tcp 1540 [0 0 0 0] ------- [0:0 4:0 32 0] [36 0] 0 0
s 1.313354413 _0_ RTR  --- 55 tcp 1540 [0 0 0 0] ------- [0:0 4:0 30 4] [35 0] 0 0
s 1.313354413 _0_ RTR  --- 56 tcp 1540 [0 0 0 0] ------- [0:0 4:0 30 4] [36 0] 0 0
r 1.327418638 _4_ AGT  --- 33 tcp 1540 [13a 4 0 800] ------- [0:0 4:0 30 4] [20 0] 1 0
s 1.327418638 _4_ AGT  --- 57 ack 40 [0 0 0 0] ------- [4:0 0:0 32 0] [20 0] 0 0
r 1.327418638 _4_ RTR  --- 57 ack 40 [0 0 0 0] ------- [4:0 0:0 32 0] [20 0] 0 0
s 1.327418638 _4_ RTR  --- 57 ack 40 [0 0 0 0] ------- [4:0 0:0 30 0] [20 0] 0 0
r 1.341262939 _4_ AGT  --- 34 tcp 1540 [13a 4 0 800] ------- [0:0 4:0 30 4] [21 0] 1 0
s 1.341262939 _4_ AGT  --- 58 ack 40 [0 0 0 0] ------- [4:0 0:0 32 0] [21 0] 0 0
r 1.341262939 _4_ RTR  --- 58 ack 40 [0 0 0 0] ------- [4:0 0:0 32 0] [21 0] 0 0
s 1.341262939 _4_ RTR  --- 58 ack 40 [0 0 0 0] ------- [4:0 0:0 30 0] [21 0] 0 0
r 1.343107164 _0_ AGT  --- 53 ack 40 [13a 0 4 800] ------- [4:0 0:0 30 0] [18 0] 1 0
s 1.343107164 _0_ AGT  --- 59 tcp 1540 [0 0 0 0] ------- [0:0 4:0 32 0] [37 0] 0 0
r 1.343107164 _0_ RTR  --- 59 tcp 1540 [0 0 0 0] ------- [0:0 4:0 32 0] [37 0] 0 0
s 1.343107164 _0_ AGT  --- 60 tcp 1540 [0 0 0 0] ------- [0:0 4:0 32 0] [38 0] 0 0
r 1.343107164 _0_ RTR  --- 60 tcp 1540 [0 0 0 0] ------- [0:0 4:0 32 0] [38 0] 0 0
s 1.343107164 _0_ RTR  --- 59 tcp 1540 [0 0 0 0] ------- [0:0 4:0 30 4] [37 0] 0 0
s 1.343107164 _0_ RTR  --- 60 tcp 1540 [0 0 0 0] ------- [0:0 4:0 30 4] [38 0] 0 0
r 1.345171465 _0_ AGT  --- 54 ack 40 [13a 0 4 800] ------- [4:0 0:0 30 0] [19 0] 1 0
s 1.345171465 _0_ AGT  --- 61 tcp 1540 [0 0 0 0] ------- [0:0 4:0 32 0] [39 0] 0 0
r 1.345171465 _0_ RTR  --- 61 tcp 1540 [0 0 0 0] ------- [0:0 4:0 32 0] [39 0] 0 0
s 1.345171465 _0_ RTR  --- 61 tcp 1540 [0 0 0 0] ------- [0:0 4:0 30 4] [39 0] 0 0
r 1.347115766 _0_ AGT  --- 57 ack 40 [13a 0 4 800] ------- [4:0 0:0 30 0] [20 0] 1 0
s 1.347115766 _0_ AGT  --- 62 tcp 1540 [0 0 0 0] ------- [0:0 4:0 32 0] [40 0] 0 0
r 1.347115766 _0_ RTR  --- 62 tcp 1540 [0 0 0 0] ------- [0:0 4:0 32 0] [40 0] 0 0
s 1.347115766 _0_ RTR  --- 62 tcp 1540 [0 0 0 0] ------- [0:0 4:0 30 4] [40 0] 0 0
r 1.361039992 _4_ AGT  --- 35 tcp 1540 [13a 4 0 800] ------- [0:0 4:0 30 4] [22 0] 1 0
s 1.361039992 _4_ AGT  --- 63 ack 40 [0 0 0 0] ------- [4:0 0:0 32 0] [22 0] 0 0
r 1.361039992 _4_ RTR  --- 63 ack 40 [0 0 0 0] ------- [4:0 0:0 32 0] [22 0] 0 0
s 1.361039992 _4_ RTR  --- 63 ack 40 [0 0 0 0] ------- [4:0 0:0 30 0] [22 0] 0 0
r 1.374904294 _4_ AGT  --- 36 tcp 1540 [13a 4 0 800] ------- [0:0 4:0 30 4] [23 0] 1 0
s 1.374904294 _4_ AGT  --- 64 ack 40 [0 0 0 0] ------- [4:0 0:0 32 0] [23 0] 0 0
r 1.374904294 _4_ RTR  --- 64 ack 40 [0 0 0 0] ------- [4:0 0:0 32 0] [23 0] 0 0
s 1.374904294 _4_ RTR  --- 64 ack 40 [0 0 0 0] ------- [4:0 0:0 30 0] [23 0] 0 0
r 1.376888521 _0_ AGT  --- 58 ack 40 [13a 0 4 800] ------- [4:0 0:0 30 0] [21 0] 1 0
s 1.376888521 _0_ AGT  --- 65 tcp 1540 [0 0 0 0] ------- [0:0 4:0 32 0] [41 0] 0 0
r 1.376888521 _0_ RTR  --- 65 tcp 1540 [0 0 0 0] ------- [0:0 4:0 32 0] [41 0] 0 0
s 1.376888521 _0_ RTR  --- 65 tcp 1540 [0 0 0 0] ------- [0:0 4:0 30 4] [41 0] 0 0
r 1.378832823 _0_ AGT  --- 63 ack 40 [13a 0 4 800] ------- [4:0 0:0 30 0] [22 0] 1 0
s 1.378832823 _0_ AGT  --- 66 tcp 1540 [0 0 0 0] ------- [0:0 4:0 32 0] [42 0] 0 0
r 1.378832823 _0_ RTR  --- 66 tcp 1540 [0 0 0 0] ------- [0:0 4:0 32 0] [42 0] 0 0
s 1.378832823 _0_ RTR  --- 66 tcp 1540 [0 0 0 0] ------- [0:0 4:0 30 4] [42 0] 0 0
r 1.392837050 _4_ AGT  --- 37 tcp 1540 [13a 4 0 800] ------- [0:0 4:0 30 4] [24 0] 1 0
s 1.392837050 _4_ AGT  --- 67 ack 40 [0 0 0 0] ------- [4:0 0:0 32 0] [24 0] 0 0
r 1.392837050 _4_ RTR  --- 67 ack 40 [0 0 0 0] ------- [4:0 0:0 32 0] [24 0] 0 0
s 1.392837050 _4_ RTR  --- 67 ack 40 [0 0 0 0] ------- [4:0 0:0 30 0] [24 0] 0 0
r 1.394681277 _0_ AGT  --- 64 ack 40 [13a 0 4 800] ------- [4:0 0:0 30 0] [23 0] 1 0
s 1.394681277 _0_ AGT  --- 68 tcp 1540 [0 0 0 0] ------- [0:0 4:0 32 0] [43 0] 0 0
r 1.394681277 _0_ RTR  --- 68 tcp 1540 [0 0 0 0] ------- [0:0 4:0 32 0] [43 0] 0 0
s 1.394681277 _0_ RTR  --- 68 tcp 1540 [0 0 0 0] ------- [0:0 4:0 30 4] [43 0] 0 0
r 1.409431656 _4_ AGT  --- 39 tcp 1540 [13a 4 0 800] ------- [0:0 4:0 30 4] [25 0] 1 0
s 1.409431656 _4_ AGT  --- 69 ack 40 [0 0 0 0] ------- [4:0 0:0 32 0] [25 0] 0 0
r 1.409431656 _4_ RTR  --- 69 ack 40 [0 0 0 0] ------- [4:0 0:0 32 0] [25 0] 0 0
s 1.409431656 _4_ RTR  --- 69 ack 40 [0 0 0 0] ------- [4:0 0:0 30 0] [25 0] 0 0
r 1.423315960 _4_ AGT  --- 40 tcp 1540 [13a 4 0 800] ------- [0:0 4:0 30 4] [26 0] 1 0
s 1.423315960 _4_ AGT  --- 70 ack 40 [0 0 0 0] ------- [4:0 0:0 32 0] [26 0] 0 0
r 1.423315960 _4_ RTR  --- 70 ack 40 [0 0 0 0] ------- [4:0 0:0 32 0] [26 0] 0 0
s 1.423315960 _4_ RTR  --- 70 ack 40 [0 0 0 0] ------- [4:0 0:0 30 0] [26 0] 0 0
r 1.425360188 _0_ AGT  --- 67 ack 40 [13a 0 4 800] ------- [4:0 0:0 30 0] [24 0] 1 0
s 1.425360188 _0_ AGT  --- 71 tcp 1540 [0 0 0 0] ------- [0:0 4:0 32 0] [44 0] 0 0
r 1.425360188 _0_ RTR  --- 71 tcp 1540 [0 0 0 0] ------- [0:0 4:0 32 0] [44 0] 0 0
s 1.425360188 _0_ RTR  --- 71 tcp 1540 [0 0 0 0] ------- [0:0 4:0 30 4] [44 0] 0 0
r 1.439304417 _4_ AGT  --- 41 tcp 1540 [13a 4 0 800] ------- [0:0 4:0 30 4] [27 0] 1 0
s 1.439304417 _4_ AGT  --- 72 ack 40 [0 0 0 0] ------- [4:0 0:0 32 0] [27 0] 0 0
r 1.439304417 _4_ RTR  --- 72 ack 40 [0 0 0 0] ------- [4:0 0:0 32 0] [27 0] 0 0
s 1.439304417 _4_ RTR  --- 72 ack 40 [0 0 0 0] ------- [4:0 0:0 30 0] [27 0] 0 0
r 1.453248722 _4_ AGT  --- 42 tcp 1540 [13a 4 0 800] ------- [0:0 4:0 30 4] [28 0] 1 0
s 1.453248722 _4_ AGT  --- 73 ack 40 [0 0 0 0] ------- [4:0 0:0 32 0] [28 0] 0 0
r 1.453248722 _4_ RTR  --- 73 ack 40 [0 0 0 0] ------- [4:0 0:0 32 0] [28 0] 0 0
s 1.453248722 _4_ RTR  --- 73 ack 40 [0 0 0 0] ------- [4:0 0:0 30 0] [28 0] 0 0
r 1.467133028 _4_ AGT  --- 44 tcp 1540 [13a 4 0 800] ------- [0:0 4:0 30 4] [29 0] 1 0
s 1.467133028 _4_ AGT  --- 74 ack 40 [0 0 0 0] ------- [4:0 0:0 32 0] [29 0] 0 0
r 1.467133028 _4_ RTR  --- 74 ack 40 [0 0 0 0] ------- [4:0 0:0 32 0] [29 0] 0 0
s 1.467133028 _4_ RTR  --- 74 ack 40 [0 0 0 0] ------- [4:0 0:0 30 0] [29 0] 0 0
r 1.469257257 _0_ AGT  --- 69 ack 40 [13a 0 4 800] ------- [4:0 0:0 30 0] [25 0] 1 0
s 1.469257257 _0_ AGT  --- 75 tcp 1540 [0 0 0 0] ------- [0:0 4:0 32 0] [45 0] 0 0
r 1.469257257 _0_ RTR  --- 75 tcp 1540 [0 0 0 0] ------- [0:0 4:0 32 0] [45 0] 0 0
s 1.469257257 _0_ RTR  --- 75 tcp 1540 [0 0 0 0] ------- [0:0 4:0 30 4] [45 0] 0 0
r 1.471201564 _0_ AGT  --- 70 ack 40 [13a 0 4 800] ------- [4:0 0:0 30 0] [26 0] 1 0
s 1.471201564 _0_ AGT  --- 76 tcp 1540 [0 0 0 0] ------- [0:0 4:0 32 0] [46 0] 0 0
r 1.471201564 _0_ RTR  --- 76 tcp 1540 [0 0 0 0] ------- [0:0 4:0 32 0] [46 0] 0 0
s 1.471201564 _0_ RTR  --- 76 tcp 1540 [0 0 0 0] ------- [0:0 4:0 30 4] [46 0] 0 0
r 1.485185794 _4_ AGT  --- 45 tcp 1540 [13a 4 0 800] ------- [0:0 4:0 30 4] [30 0] 1 0
s 1.485185794 _4_ AGT  --- 77 ack 40 [0 0 0 0] ------- [4:0 0:0 32 0] [30 0] 0 0
r 1.485185794 _4_ RTR  --- 77 ack 40 [0 0 0 0] ------- [4:0 0:0 32 0] [30 0] 0 0
s 1.485185794 _4_ RTR  --- 77 ack 40 [0 0 0 0] ------- [4:0 0:0 30 0] [30 0] 0 0
r 1.501056101 _4_ AGT  --- 47 tcp 1540 [13a 4 0 800] ------- [0:0 4:0 30 4] [31 0] 1 0
s 1.501056101 _4_ AGT  --- 78 ack 40 [0 0 0 0] ------- [4:0 0:0 32 0] [31 0] 0 0
r 1.501056101 _4_ RTR  --- 78 ack 40 [0 0 0 0] ------- [4:0 0:0 32 0] [31 0] 0 0
s 1.501056101 _4_ RTR  --- 78 ack 40 [0 0 0 0] ------- [4:0 0:0 30 0] [31 0] 0 0
r 1.515180409 _4_ AGT  --- 48 tcp 1540 [13a 4 0 800] ------- [0:0 4:0 30 4] [32 0] 1 0
s 1.515180409 _4_ AGT  --- 79 ack 40 [0 0 0 0] ------- [4:0 0:0 32 0] [32 0] 0 0
r 1.515180409 _4_ RTR  --- 79 ack 40 [0 0 0 0] ------- [4:0 0:0 32 0] [32 0] 0 0
s 1.515180409 _4_ RTR  --- 79 ack 40 [0 0 0 0] ------- [4:0 0:0 30 0] [32 0] 0 0
r 1.517084641 _0_ AGT  --- 72 ack 40 [13a 0 4 800] ------- [4:0 0:0 30 0] [27 0] 1 0
s 1.517084641 _0_ AGT  --- 80 tcp 1540 [0 0 0 0] ------- [0:0 4:0 32 0] [47 0] 0 0
r 1.517084641 _0_ RTR  --- 80 tcp 1540 [0 0 0 0] ------- [0:0 4:0 32 0] [47 0] 0 0
s 1.517084641 _0_ RTR  --- 80 tcp 1540 [0 0 0 0] ------- [0:0 4:0 30 4] [47 0] 0 0
r 1.531128872 _4_ AGT  --- 50 tcp 1540 [13a 4 0 800] ------- [0:0 4:0 30 4] [33 0] 1 0
s 1.531128872 _4_ AGT  --- 81 ack 40 [0 0 0 0] ------- [4:0 0:0 32 0] [33 0] 0 0
r 1.531128872 _4_ RTR  --- 81 ack 40 [0 0 0 0] ------- [4:0 0:0 32 0] [33 0] 0 0
s 1.531128872 _4_ RTR  --- 81 ack 40 [0 0 0 0] ------- [4:0 0:0 30 0] [33 0] 0 0
r 1.544993182 _4_ AGT  --- 51 tcp 1540 [13a 4 0 800] ------- [0:0 4:0 30 4] [34 0] 1 0
s 1.544993182 _4_ AGT  --- 82 ack 40 [0 0 0 0] ------- [4:0 0:0 32 0] [34 0] 0 0
r 1.544993182 _4_ RTR  --- 82 ack 40 [0 0 0 0] ------- [4:0 0:0 32 0] [34 0] 0 0
s 1.544993182 _4_ RTR  --- 82 ack 40 [0 0 0 0] ------- [4:0 0:0 30 0] [34 0] 0 0
r 1.546897414 _0_ AGT  --- 73 ack 40 [13a 0 4 800] ------- [4:0 0:0 30 0] [28 0] 1 0
s 1.546897414 _0_ AGT  --- 83 tcp 1540 [0 0 0 0] ------- [0:0 4:0 32 0] [48 0] 0 0
r 1.546897414 _0_ RTR  --- 83 tcp 1540 [0 0 0 0] ------- [0:0 4:0 32 0] [48 0] 0 0
s 1.546897414 _0_ RTR  --- 83 tcp 1540 [0 0 0 0] ------- [0:0 4:0 30 4] [48 0] 0 0
r 1.548941724 _0_ AGT  --- 74 ack 40 [13a 0 4 800] ------- [4:0 0:0 30 0] [29 0] 1 0
s 1.548941724 _0_ AGT  --- 84 tcp 1540 [0 0 0 0] ------- [0:0 4:0 32 0] [49 0] 0 0
r 1.548941724 _0_ RTR  --- 84 tcp 1540 [0 0 0 0] ------- [0:0 4:0 32 0] [49 0] 0 0
s 1.548941724 _0_ RTR  --- 84 tcp 1540 [0 0 0 0] ------- [0:0 4:0 30 4] [49 0] 0 0
r 1.550946035 _0_ AGT  --- 77 ack 40 [13a 0 4 800] ------- [4:0 0:0 30 0] [30 0] 1 0
s 1.550946035 _0_ AGT  --- 85 tcp 1540 [0 0 0 0] ------- [0:0 4:0 32 0] [50 0] 0 0
r 1.550946035 _0_ RTR  --- 85 tcp 1540 [0 0 0 0] ------- [0:0 4:0 32 0] [50 0] 0 0
s 1.550946035 _0_ RTR  --- 85 tcp 1540 [0 0 0 0] ------- [0:0 4:0 30 4] [50 0] 0 0
r 1.564870268 _4_ AGT  --- 55 tcp 1540 [13a 4 0 800] ------- [0:0 4:0 30 4] [35 0] 1 0
s 1.564870268 _4_ AGT  --- 86 ack 40 [0 0 0 0] ------- [4:0 0:0 32 0] [35 0] 0 0
r 1.564870268 _4_ RTR  --- 86 ack 40 [0 0 0 0] ------- [4:0 0:0 32 0] [35 0] 0 0
s 1.564870268 _4_ RTR  --- 86 ack 40 [0 0 0 0] ------- [4:0 0:0 30 0] [35 0] 0 0
r 1.566754501 _0_ AGT  --- 78 ack 40 [13a 0 4 800] ------- [4:0 0:0 30 0] [31 0] 1 0