n -t * -s 0  -x 694 -y 109 -Z 0 -z 25  -v circle -c black
n -t * -s 1  -x 705 -y 106 -Z 0 -z 25  -v circle -c black
n -t * -s 2  -x 734 -y 88 -Z 0 -z 25  -v circle -c black
n -t * -s 3  -x 77 -y 625 -Z 0 -z 25  -v circle -c black
n -t * -s 4  -x 829 -y 41 -Z 0 -z 25  -v circle -c black
V -t * -v 1.0a5 -a 0
W -t * -x 1000 -y 1000
A -t * -n 1 -p 0 -o 0x7fffffff -c 30 -a 1
A -t * -h 1 -m 1073741823 -s 0
n -t 1.000000 -s 0 -x 694.000000 -y 109.000000 -U -8.565947 -V 2.761258 -T 49.615061
n -t 1.000000 -s 1 -x 705.000000 -y 106.000000 -U -3.812754 -V 1.209508 -T 124.844153
n -t 1.000000 -s 2 -x 734.000000 -y 88.000000 -U 5.430984 -V -7.176657 -T 10.311207
n -t 1.000000 -s 3 -x 77.000000 -y 625.000000 -U 3.757974 -V 1.370266 -T 121.874167
n -t 1.000000 -s 4 -x 829.000000 -y 41.000000 -U -2.157579 -V 6.659193 -T 37.542085
+ -t 1.000000000 -s 0 -d -1 -p tcp -e 40 -c 2 -a 0 -i 0 -k AGT 
- -t 1.000000000 -s 0 -d -1 -p tcp -e 40 -c 2 -a 0 -i 0 -k AGT
h -t 1.000000000 -s 0 -d -1 -p tcp -e 40 -c 2 -a 0 -i 0 -k AGT
+ -t 1.000000000 -s 0 -d -1 -p AODV -e 48 -c 2 -a 0 -i 0 -k RTR 
- -t 1.000000000 -s 0 -d -1 -p AODV -e 48 -c 2 -a 0 -i 0 -k RTR
h -t 1.000000000 -s 0 -d -1 -p AODV -e 48 -c 2 -a 0 -i 0 -k RTR
r -t 1.000988038 -s 1 -d -1 -p AODV -e 48 -c 2 -a 0 -i 0 -k RTR
r -t 1.000988151 -s 2 -d -1 -p AODV -e 48 -c 2 -a 0 -i 0 -k RTR
r -t 1.000988504 -s 4 -d -1 -p AODV -e 48 -c 2 -a 0 -i 0 -k RTR
+ -t 1.000988504 -s 4 -d 0 -p AODV -e 44 -c 2 -a 0 -i 0 -k RTR 
- -t 1.000988504 -s 4 -d 0 -p AODV -e 44 -c 2 -a 0 -i 0 -k RTR
h -t 1.000988504 -s 4 -d 0 -p AODV -e 44 -c 2 -a 0 -i 0 -k RTR
+ -t 1.001869265 -s 1 -d -1 -p AODV -e 48 -c 2 -a 0 -i 0 -k RTR 
- -t 1.001869265 -s 1 -d -1 -p AODV -e 48 -c 2 -a 0 -i 0 -k RTR
h -t 1.001869265 -s 1 -d -1 -p AODV -e 48 -c 2 -a 0 -i 0 -k RTR
r -t 1.003017303 -s 0 -d -1 -p AODV -e 48 -c 2 -a 0 -i 0 -k RTR
r -t 1.003017379 -s 2 -d -1 -p AODV -e 48 -c 2 -a 0 -i 0 -k RTR
r -t 1.003017731 -s 4 -d -1 -p AODV -e 48 -c 2 -a 0 -i 0 -k RTR
+ -t 1.005399884 -s 2 -d -1 -p AODV -e 48 -c 2 -a 0 -i 0 -k RTR 
- -t 1.005399884 -s 2 -d -1 -p AODV -e 48 -c 2 -a 0 -i 0 -k RTR
h -t 1.005399884 -s 2 -d -1 -p AODV -e 48 -c 2 -a 0 -i 0 -k RTR
+ -t 1.006830326 -s 0 -d 4 -p tcp -e 40 -c 2 -a 0 -i 0 -k RTR 
- -t 1.006830326 -s 0 -d 4 -p tcp -e 40 -c 2 -a 0 -i 0 -k RTR
h -t 1.006830326 -s 0 -d 4 -p tcp -e 40 -c 2 -a 0 -i 0 -k RTR
r -t 1.008695838 -s 4 -d 4 -p tcp -e 40 -c 2 -a 0 -i 0 -k AGT
+ -t 1.008695838 -s 4 -d -1 -p ack -e 40 -c 2 -a 0 -i 1 -k AGT 
- -t 1.008695838 -s 4 -d -1 -p ack -e 40 -c 2 -a 0 -i 1 -k AGT
h -t 1.008695838 -s 4 -d -1 -p ack -e 40 -c 2 -a 0 -i 1 -k AGT
+ -t 1.008695838 -s 4 -d 0 -p ack -e 40 -c 2 -a 0 -i 1 -k RTR 
- -t 1.008695838 -s 4 -d 0 -p ack -e 40 -c 2 -a 0 -i 1 -k RTR
h -t 1.008695838 -s 4 -d 0 -p ack -e 40 -c 2 -a 0 -i 1 -k RTR
r -t 1.010108305 -s 1 -d -1 -p AODV -e 48 -c 2 -a 0 -i 0 -k RTR
r -t 1.010108342 -s 0 -d -1 -p AODV -e 48 -c 2 -a 0 -i 0 -k RTR
r -t 1.010108544 -s 4 -d -1 -p AODV -e 48 -c 2 -a 0 -i 0 -k RTR
r -t 1.011920056 -s 0 -d 0 -p ack -e 40 -c 2 -a 0 -i 1 -k AGT
+ -t 1.011920056 -s 0 -d -1 -p tcp -e 1540 -c 2 -a 0 -i 2 -k AGT 
- -t 1.011920056 -s 0 -d -1 -p tcp -e 1540 -c 2 -a 0 -i 2 -k AGT
h -t 1.011920056 -s 0 -d -1 -p tcp -e 1540 -c 2 -a 0 -i 2 -k AGT
+ -t 1.011920056 -s 0 -d -1 -p tcp -e 1540 -c 2 -a 0 -i 3 -k AGT 
- -t 1.011920056 -s 0 -d -1 -p tcp -e 1540 -c 2 -a 0 -i 3 -k AGT
h -t 1.011920056 -s 0 -d -1 -p tcp -e 1540 -c 2 -a 0 -i 3 -k AGT
+ -t 1.011920056 -s 0 -d 4 -p tcp -e 1540 -c 2 -a 0 -i 2 -k RTR 
- -t 1.011920056 -s 0 -d 4 -p tcp -e 1540 -c 2 -a 0 -i 2 -k RTR
h -t 1.011920056 -s 0 -d 4 -p tcp -e 1540 -c 2 -a 0 -i 2 -k RTR
+ -t 1.011920056 -s 0 -d 4 -p tcp -e 1540 -c 2 -a 0 -i 3 -k RTR 
- -t 1.011920056 -s 0 -d 4 -p tcp -e 1540 -c 2 -a 0 -i 3 -k RTR
h -t 1.011920056 -s 0 -d 4 -p tcp -e 1540 -c 2 -a 0 -i 3 -k RTR
r -t 1.025985568 -s 4 -d 4 -p tcp -e 1540 -c 2 -a 0 -i 2 -k AGT
+ -t 1.025985568 -s 4 -d -1 -p ack -e 40 -c 2 -a 0 -i 4 -k AGT 
- -t 1.025985568 -s 4 -d -1 -p ack -e 40 -c 2 -a 0 -i 4 -k AGT
h -t 1.025985568 -s 4 -d -1 -p ack -e 40 -c 2 -a 0 -i 4 -k AGT
+ -t 1.025985568 -s 4 -d 0 -p ack -e 40 -c 2 -a 0 -i 4 -k RTR 
- -t 1.025985568 -s 4 -d 0 -p ack -e 40 -c 2 -a 0 -i 4 -k RTR
h -t 1.025985568 -s 4 -d 0 -p ack -e 40 -c 2 -a 0 -i 4 -k RTR
r -t 1.040151585 -s 4 -d 4 -p tcp -e 1540 -c 2 -a 0 -i 3 -k AGT
+ -t 1.040151585 -s 4 -d -1 -p ack -e 40 -c 2 -a 0 -i 5 -k AGT 
- -t 1.040151585 -s 4 -d -1 -p ack -e 40 -c 2 -a 0 -i 5 -k AGT
h -t 1.040151585 -s 4 -d -1 -p ack -e 40 -c 2 -a 0 -i 5 -k AGT
+ -t 1.040151585 -s 4 -d 0 -p ack -e 40 -c 2 -a 0 -i 5 -k RTR 
- -t 1.040151585 -s 4 -d 0 -p ack -e 40 -c 2 -a 0 -i 5 -k RTR
h -t 1.040151585 -s 4 -d 0 -p ack -e 40 -c 2 -a 0 -i 5 -k RTR
r -t 1.042117098 -s 0 -d 0 -p ack -e 40 -c 2 -a 0 -i 4 -k AGT
+ -t 1.042117098 -s 0 -d -1 -p tcp -e 1540 -c 2 -a 0 -i 6 -k AGT 
- -t 1.042117098 -s 0 -d -1 -p tcp -e 1540 -c 2 -a 0 -i 6 -k AGT
h -t 1.042117098 -s 0 -d -1 -p tcp -e 1540 -c 2 -a 0 -i 6 -k AGT
+ -t 1.042117098 -s 0 -d -1 -p tcp -e 1540 -c 2 -a 0 -i 7 -k AGT 
- -t 1.042117098 -s 0 -d -1 -p tcp -e 1540 -c 2 -a 0 -i 7 -k AGT
h -t 1.042117098 -s 0 -d -1 -p tcp -e 1540 -c 2 -a 0 -i 7 -k AGT
+ -t 1.042117098 -s 0 -d 4 -p tcp -e 1540 -c 2 -a 0 -i 6 -k RTR 
- -t 1.042117098 -s 0 -d 4 -p tcp -e 1540 -c 2 -a 0 -i 6 -k RTR
h -t 1.042117098 -s 0 -d 4 -p tcp -e 1540 -c 2 -a 0 -i 6 -k RTR
+ -t 1.042117098 -s 0 -d 4 -p tcp -e 1540 -c 2 -a 0 -i 7 -k RTR 
- -t 1.042117098 -s 0 -d 4 -p tcp -e 1540 -c 2 -a 0 -i 7 -k RTR
h -t 1.042117098 -s 0 -d 4 -p tcp -e 1540 -c 2 -a 0 -i 7 -k RTR
r -t 1.056122612 -s 4 -d 4 -p tcp -e 1540 -c 2 -a 0 -i 6 -k AGT
+ -t 1.056122612 -s 4 -d -1 -p ack -e 40 -c 2 -a 0 -i 8 -k AGT 
- -t 1.056122612 -s 4 -d -1 -p ack -e 40 -c 2 -a 0 -i 8 -k AGT
h -t 1.056122612 -s 4 -d -1 -p ack -e 40 -c 2 -a 0 -i 8 -k AGT
+ -t 1.056122612 -s 4 -d 0 -p ack -e 40 -c 2 -a 0 -i 8 -k RTR 
- -t 1.056122612 -s 4 -d 0 -p ack -e 40 -c 2 -a 0 -i 8 -k RTR
h -t 1.056122612 -s 4 -d 0 -p ack -e 40 -c 2 -a 0 -i 8 -k RTR
r -t 1.057968125 -s 0 -d 0 -p ack -e 40 -c 2 -a 0 -i 5 -k AGT
+ -t 1.057968125 -s 0 -d -1 -p tcp -e 1540 -c 2 -a 0 -i 9 -k AGT 
- -t 1.057968125 -s 0 -d -1 -p tcp -e 1540 -c 2 -a 0 -i 9 -k AGT
h -t 1.057968125 -s 0 -d -1 -p tcp -e 1540 -c 2 -a 0 -i 9 -k AGT
+ -t 1.057968125 -s 0 -d -1 -p tcp -e 1540 -c 2 -a 0 -i 10 -k AGT 
- -t 1.057968125 -s 0 -d -1 -p tcp -e 1540 -c 2 -a 0 -i 10 -k AGT
h -t 1.057968125 -s 0 -d -1 -p tcp -e 1540 -c 2 -a 0 -i 10 -k AGT
+ -t 1.057968125 -s 0 -d 4 -p tcp -e 1540 -c 2 -a 0 -i 9 -k RTR 
- -t 1.057968125 -s 0 -d 4 -p tcp -e 1540 -c 2 -a 0 -i 9 -k RTR
h -t 1.057968125 -s 0 -d 4 -p tcp -e 1540 -c 2 -a 0 -i 9 -k RTR
+ -t 1.057968125 -s 0 -d 4 -p tcp -e 1540 -c 2 -a 0 -i 10 -k RTR 
- -t 1.057968125 -s 0 -d 4 -p tcp -e 1540 -c 2 -a 0 -i 10 -k RTR
h -t 1.057968125 -s 0 -d 4 -p tcp -e 1540 -c 2 -a 0 -i 10 -k RTR
r -t 1.059814144 -s 0 -d 0 -p ack -e 40 -c 2 -a 0 -i 8 -k AGT
+ -t 1.059814144 -s 0 -d -1 -p tcp -e 1540 -c 2 -a 0 -i 11 -k AGT 
- -t 1.059814144 -s 0 -d -1 -p tcp -e 1540 -c 2 -a 0 -i 11 -k AGT
h -t 1.059814144 -s 0 -d -1 -p tcp -e 1540 -c 2 -a 0 -i 11 -k AGT
+ -t 1.059814144 -s 0 -d -1 -p tcp -e 1540 -c 2 -a 0 -i 12 -k AGT 
- -t 1.059814144 -s 0 -d -1 -p tcp -e 1540 -c 2 -a 0 -i 12 -k AGT
h -t 1.059814144 -s 0 -d -1 -p tcp -e 1540 -c 2 -a 0 -i 12 -k AGT
+ -t 1.059814144 -s 0 -d 4 -p tcp -e 1540 -c 2 -a 0 -i 11 -k RTR 
- -t 1.059814144 -s 0 -d 4 -p tcp -e 1540 -c 2 -a 0 -i 11 -k RTR
h -t 1.059814144 -s 0 -d 4 -p tcp -e 1540 -c 2 -a 0 -i 11 -k RTR
+ -t 1.059814144 -s 0 -d 4 -p tcp -e 1540 -c 2 -a 0 -i 12 -k RTR 
- -t 1.059814144 -s 0 -d 4 -p tcp -e 1540 -c 2 -a 0 -i 12 -k RTR
h -t 1.059814144 -s 0 -d 4 -p tcp -e 1540 -c 2 -a 0 -i 12 -k RTR
r -t 1.073819658 -s 4 -d 4 -p tcp -e 1540 -c 2 -a 0 -i 7 -k AGT
+ -t 1.073819658 -s 4 -d -1 -p ack -e 40 -c 2 -a 0 -i 13 -k AGT 
- -t 1.073819658 -s 4 -d -1 -p ack -e 40 -c 2 -a 0 -i 13 -k AGT
h -t 1.073819658 -s 4 -d -1 -p ack -e 40 -c 2 -a 0 -i 13 -k AGT
+ -t 1.073819658 -s 4 -d 0 -p ack -e 40 -c 2 -a 0 -i 13 -k RTR 
- -t 1.073819658 -s 4 -d 0 -p ack -e 40 -c 2 -a 0 -i 13 -k RTR
h -t 1.073819658 -s 4 -d 0 -p ack -e 40 -c 2 -a 0 -i 13 -k RTR
r -t 1.075705172 -s 0 -d 0 -p ack -e 40 -c 2 -a 0 -i 13 -k AGT
+ -t 1.075705172 -s 0 -d -1 -p tcp -e 1540 -c 2 -a 0 -i 14 -k AGT 
- -t 1.075705172 -s 0 -d -1 -p tcp -e 1540 -c 2 -a 0 -i 14 -k AGT
h -t 1.075705172 -s 0 -d -1 -p tcp -e 1540 -c 2 -a 0 -i 14 -k AGT
+ -t 1.075705172 -s 0 -d -1 -p tcp -e 1540 -c 2 -a 0 -i 15 -k AGT 
- -t 1.075705172 -s 0 -d -1 -p tcp -e 1540 -c 2 -a 0 -i 15 -k AGT
h -t 1.075705172 -s 0 -d -1 -p tcp -e 1540 -c 2 -a 0 -i 15 -k AGT
+ -t 1.075705172 -s 0 -d 4 -p tcp -e 1540 -c 2 -a 0 -i 14 -k RTR 
- -t 1.075705172 -s 0 -d 4 -p tcp -e 1540 -c 2 -a 0 -i 14 -k RTR
h -t 1.075705172 -s 0 -d 4 -p tcp -e 1540 -c 2 -a 0 -i 14 -k RTR
+ -t 1.075705172 -s 0 -d 4 -p tcp -e 1540 -c 2 -a 0 -i 15 -k RTR 
- -t 1.075705172 -s 0 -d 4 -p tcp -e 1540 -c 2 -a 0 -i 15 -k RTR
h -t 1.075705172 -s 0 -d 4 -p tcp -e 1540 -c 2 -a 0 -i 15 -k RTR
r -t 1.089910687 -s 4 -d 4 -p tcp -e 1540 -c 2 -a 0 -i 9 -k AGT
+ -t 1.089910687 -s 4 -d -1 -p ack -e 40 -c 2 -a 0 -i 16 -k AGT 
- -t 1.089910687 -s 4 -d -1 -p ack -e 40 -c 2 -a 0 -i 16 -k AGT
h -t 1.089910687 -s 4 -d -1 -p ack -e 40 -c 2 -a 0 -i 16 -k AGT
+ -t 1.089910687 -s 4 -d 0 -p ack -e 40 -c 2 -a 0 -i 16 -k RTR 
- -t 1.089910687 -s 4 -d 0 -p ack -e 40 -c 2 -a 0 -i 16 -k RTR
h -t 1.089910687 -s 4 -d 0 -p ack -e 40 -c 2 -a 0 -i 16 -k RTR
r -t 1.104136707 -s 4 -d 4 -p tcp -e 1540 -c 2 -a 0 -i 10 -k AGT
+ -t 1.104136707 -s 4 -d -1 -p ack -e 40 -c 2 -a 0 -i 17 -k AGT 
- -t 1.104136707 -s 4 -d -1 -p ack -e 40 -c 2 -a 0 -i 17 -k AGT
h -t 1.104136707 -s 4 -d -1 -p ack -e 40 -c 2 -a 0 -i 17 -k AGT
+ -t 1.104136707 -s 4 -d 0 -p ack -e 40 -c 2 -a 0 -i 17 -k RTR 
- -t 1.104136707 -s 4 -d 0 -p ack -e 40 -c 2 -a 0 -i 17 -k RTR
h -t 1.104136707 -s 4 -d 0 -p ack -e 40 -c 2 -a 0 -i 17 -k RTR
r -t 1.106142223 -s 0 -d 0 -p ack -e 40 -c 2 -a 0 -i 16 -k AGT
+ -t 1.106142223 -s 0 -d -1 -p tcp -e 1540 -c 2 -a 0 -i 18 -k AGT 
- -t 1.106142223 -s 0 -d -1 -p tcp -e 1540 -c 2 -a 0 -i 18 -k AGT
h -t 1.106142223 -s 0 -d -1 -p tcp -e 1540 -c 2 -a 0 -i 18 -k AGT
+ -t 1.106142223 -s 0 -d -1 -p tcp -e 1540 -c 2 -a 0 -i 19 -k AGT 
- -t 1.106142223 -s 0 -d -1 -p tcp -e 1540 -c 2 -a 0 -i 19 -k AGT
h -t 1.106142223 -s 0 -d -1 -p tcp -e 1540 -c 2 -a 0 -i 19 -k AGT
+ -t 1.106142223 -s 0 -d 4 -p tcp -e 1540 -c 2 -a 0 -i 18 -k RTR 
- -t 1.106142223 -s 0 -d 4 -p tcp -e 1540 -c 2 -a 0 -i 18 -k RTR
h -t 1.106142223 -s 0 -d 4 -p tcp -e 1540 -c 2 -a 0 -i 18 -k RTR
+ -t 1.106142223 -s 0 -d 4 -p tcp -e 1540 -c 2 -a 0 -i 19 -k RTR 
- -t 1.106142223 -s 0 -d 4 -p tcp -e 1540 -c 2 -a 0 -i 19 -k RTR
h -t 1.106142223 -s 0 -d 4 -p tcp -e 1540 -c 2 -a 0 -i 19 -k RTR
r -t 1.122114750 -s 4 -d 4 -p tcp -e 1540 -c 2 -a 0 -i 11 -k AGT
+ -t 1.122114750 -s 4 -d -1 -p ack -e 40 -c 2 -a 0 -i 20 -k AGT 
- -t 1.122114750 -s 4 -d -1 -p ack -e 40 -c 2 -a 0 -i 20 -k AGT
h -t 1.122114750 -s 4 -d -1 -p ack -e 40 -c 2 -a 0 -i 20 -k AGT
+ -t 1.122114750 -s 4 -d 0 -p ack -e 40 -c 2 -a 0 -i 20 -k RTR 
- -t 1.122114750 -s 4 -d 0 -p ack -e 40 -c 2 -a 0 -i 20 -k RTR
h -t 1.122114750 -s 4 -d 0 -p ack -e 40 -c 2 -a 0 -i 20 -k RTR
r -t 1.124040266 -s 0 -d 0 -p ack -e 40 -c 2 -a 0 -i 17 -k AGT
+ -t 1.124040266 -s 0 -d -1 -p tcp -e 1540 -c 2 -a 0 -i 21 -k AGT 
- -t 1.124040266 -s 0 -d -1 -p tcp -e 1540 -c 2 -a 0 -i 21 -k AGT
h -t 1.124040266 -s 0 -d -1 -p tcp -e 1540 -c 2 -a 0 -i 21 -k AGT
+ -t 1.124040266 -s 0 -d -1 -p tcp -e 1540 -c 2 -a 0 -i 22 -k AGT 
- -t 1.124040266 -s 0 -d -1 -p tcp -e 1540 -c 2 -a 0 -i 22 -k AGT
h -t 1.124040266 -s 0 -d -1 -p tcp -e 1540 -c 2 -a 0 -i 22 -k AGT
+ -t 1.124040266 -s 0 -d 4 -p tcp -e 1540 -c 2 -a 0 -i 21 -k RTR 
- -t 1.124040266 -s 0 -d 4 -p tcp -e 1540 -c 2 -a 0 -i 21 -k RTR
h -t 1.124040266 -s 0 -d 4 -p tcp -e 1540 -c 2 -a 0 -i 21 -k RTR
+ -t 1.124040266 -s 0 -d 4 -p tcp -e 1540 -c 2 -a 0 -i 22 -k RTR 
- -t 1.124040266 -s 0 -d 4 -p tcp -e 1540 -c 2 -a 0 -i 22 -k RTR
h -t 1.124040266 -s 0 -d 4 -p tcp -e 1540 -c 2 -a 0 -i 22 -k RTR
r -t 1.126006288 -s 0 -d 0 -p ack -e 40 -c 2 -a 0 -i 20 -k AGT
+ -t 1.126006288 -s 0 -d -1 -p tcp -e 1540 -c 2 -a 0 -i 23 -k AGT 
- -t 1.126006288 -s 0 -d -1 -p tcp -e 1540 -c 2 -a 0 -i 23 -k AGT
h -t 1.126006288 -s 0 -d -1 -p tcp -e 1540 -c 2 -a 0 -i 23 -k AGT
+ -t 1.126006288 -s 0 -d -1 -p tcp -e 1540 -c 2 -a 0 -i 24 -k AGT 
- -t 1.126006288 -s 0 -d -1 -p tcp -e 1540 -c 2 -a 0 -i 24 -k AGT
h -t 1.126006288 -s 0 -d -1 -p tcp -e 1540 -c 2 -a 0 -i 24 -k AGT
+ -t 1.126006288 -s 0 -d 4 -p tcp -e 1540 -c 2 -a 0 -i 23 -k RTR 
- -t 1.126006288 -s 0 -d 4 -p tcp -e 1540 -c 2 -a 0 -i 23 -k RTR
h -t 1.126006288 -s 0 -d 4 -p tcp -e 1540 -c 2 -a 0 -i 23 -k RTR
+ -t 1.126006288 -s 0 -d 4 -p tcp -e 1540 -c 2 -a 0 -i 24 -k RTR 
- -t 1.126006288 -s 0 -d 4 -p tcp -e 1540 -c 2 -a 0 -i 24 -k RTR
h -t 1.126006288 -s 0 -d 4 -p tcp -e 1540 -c 2 -a 0 -i 24 -k RTR
r -t 1.139951805 -s 4 -d 4 -p tcp -e 1540 -c 2 -a 0 -i 12 -k AGT
+ -t 1.139951805 -s 4 -d -1 -p ack -e 40 -c 2 -a 0 -i 25 -k AGT 
- -t 1.139951805 -s 4 -d -1 -p ack -e 40 -c 2 -a 0 -i 25 -k AGT
h -t 1.139951805 -s 4 -d -1 -p ack -e 40 -c 2 -a 0 -i 25 -k AGT
+ -t 1.139951805 -s 4 -d 0 -p ack -e 40 -c 2 -a 0 -i 25 -k RTR 
- -t 1.139951805 -s 4 -d 0 -p ack -e 40 -c 2 -a 0 -i 25 -k RTR
h -t 1.139951805 -s 4 -d 0 -p ack -e 40 -c 2 -a 0 -i 25 -k RTR
r -t 1.153977828 -s 4 -d 4 -p tcp -e 1540 -c 2 -a 0 -i 14 -k AGT
+ -t 1.153977828 -s 4 -d -1 -p ack -e 40 -c 2 -a 0 -i 26 -k AGT 
- -t 1.153977828 -s 4 -d -1 -p ack -e 40 -c 2 -a 0 -i 26 -k AGT
h -t 1.153977828 -s 4 -d -1 -p ack -e 40 -c 2 -a 0 -i 26 -k AGT
+ -t 1.153977828 -s 4 -d 0 -p ack -e 40 -c 2 -a 0 -i 26 -k RTR 
- -t 1.153977828 -s 4 -d 0 -p ack -e 40 -c 2 -a 0 -i 26 -k RTR
h -t 1.153977828 -s 4 -d 0 -p ack -e 40 -c 2 -a 0 -i 26 -k RTR
r -t 1.155883346 -s 0 -d 0 -p ack -e 40 -c 2 -a 0 -i 25 -k AGT
+ -t 1.155883346 -s 0 -d -1 -p tcp -e 1540 -c 2 -a 0 -i 27 -k AGT 
- -t 1.155883346 -s 0 -d -1 -p tcp -e 1540 -c 2 -a 0 -i 27 -k AGT
h -t 1.155883346 -s 0 -d -1 -p tcp -e 1540 -c 2 -a 0 -i 27 -k AGT
+ -t 1.155883346 -s 0 -d -1 -p tcp -e 1540 -c 2 -a 0 -i 28 -k AGT 
- -t 1.155883346 -s 0 -d -1 -p tcp -e 1540 -c 2 -a 0 -i 28 -k AGT
h -t 1.155883346 -s 0 -d -1 -p tcp -e 1540 -c 2 -a 0 -i 28 -k AGT
+ -t 1.155883346 -s 0 -d 4 -p tcp -e 1540 -c 2 -a 0 -i 27 -k RTR 
- -t 1.155883346 -s 0 -d 4 -p tcp -e 1540 -c 2 -a 0 -i 27 -k RTR
h -t 1.155883346 -s 0 -d 4 -p tcp -e 1540 -c 2 -a 0 -i 27 -k RTR
+ -t 1.155883346 -s 0 -d 4 -p tcp -e 1540 -c 2 -a 0 -i 28 -k RTR 
- -t 1.155883346 -s 0 -d 4 -p tcp -e 1540 -c 2 -a 0 -i 28 -k RTR
h -t 1.155883346 -s 0 -d 4 -p tcp -e 1540 -c 2 -a 0 -i 28 -k RTR
r -t 1.169728863 -s 4 -d 4 -p tcp -e 1540 -c 2 -a 0 -i 15 -k AGT
+ -t 1.169728863 -s 4 -d -1 -p ack -e 40 -c 2 -a 0 -i 29 -k AGT 
- -t 1.169728863 -s 4 -d -1 -p ack -e 40 -c 2 -a 0 -i 29 -k AGT
h -t 1.169728863 -s 4 -d -1 -p ack -e 40 -c 2 -a 0 -i 29 -k AGT
+ -t 1.169728863 -s 4 -d 0 -p ack -e 40 -c 2 -a 0 -i 29 -k RTR 
- -t 1.169728863 -s 4 -d 0 -p ack -e 40 -c 2 -a 0 -i 29 -k RTR
h -t 1.169728863 -s 4 -d 0 -p ack -e 40 -c 2 -a 0 -i 29 -k RTR
r -t 1.183774888 -s 4 -d 4 -p tcp -e 1540 -c 2 -a 0 -i 18 -k AGT
+ -t 1.183774888 -s 4 -d -1 -p ack -e 40 -c 2 -a 0 -i 30 -k AGT 
- -t 1.183774888 -s 4 -d -1 -p ack -e 40 -c 2 -a 0 -i 30 -k AGT
h -t 1.183774888 -s 4 -d -1 -p ack -e 40 -c 2 -a 0 -i 30 -k AGT
+ -t 1.183774888 -s 4 -d 0 -p ack -e 40 -c 2 -a 0 -i 30 -k RTR 
- -t 1.183774888 -s 4 -d 0 -p ack -e 40 -c 2 -a 0 -i 30 -k RTR
h -t 1.183774888 -s 4 -d 0 -p ack -e 40 -c 2 -a 0 -i 30 -k RTR
r -t 1.197800913 -s 4 -d 4 -p tcp -e 1540 -c 2 -a 0 -i 19 -k AGT
+ -t 1.197800913 -s 4 -d -1 -p ack -e 40 -c 2 -a 0 -i 31 -k AGT 
- -t 1.197800913 -s 4 -d -1 -p ack -e 40 -c 2 -a 0 -i 31 -k AGT
h -t 1.197800913 -s 4 -d -1 -p ack -e 40 -c 2 -a 0 -i 31 -k AGT
+ -t 1.197800913 -s 4 -d 0 -p ack -e 40 -c 2 -a 0 -i 31 -k RTR 
- -t 1.197800913 -s 4 -d 0 -p ack -e 40 -c 2 -a 0 -i 31 -k RTR
h -t 1.197800913 -s 4 -d 0 -p ack -e 40 -c 2 -a 0 -i 31 -k RTR
r -t 1.199706433 -s 0 -d 0 -p ack -e 40 -c 2 -a 0 -i 26 -k AGT
+ -t 1.199706433 -s 0 -d -1 -p tcp -e 1540 -c 2 -a 0 -i 32 -k AGT 
- -t 1.199706433 -s 0 -d -1 -p tcp -e 1540 -c 2 -a 0 -i 32 -k AGT
h -t 1.199706433 -s 0 -d -1 -p tcp -e 1540 -c 2 -a 0 -i 32 -k AGT
+ -t 1.199706433 -s 0 -d -1 -p tcp -e 1540 -c 2 -a 0 -i 33 -k AGT 
- -t 1.199706433 -s 0 -d -1 -p tcp -e 1540 -c 2 -a 0 -i 33 -k AGT
h -t 1.199706433 -s 0 -d -1 -p tcp -e 1540 -c 2 -a 0 -i 33 -k AGT
+ -t 1.199706433 -s 0 -d 4 -p tcp -e 1540 -c 2 -a 0 -i 32 -k RTR 
- -t 1.199706433 -s 0 -d 4 -p tcp -e 1540 -c 2 -a 0 -i 32 -k RTR
h -t 1.199706433 -s 0 -d 4 -p tcp -e 1540 -c 2 -a 0 -i 32 -k RTR
+ -t 1.199706433 -s 0 -d 4 -p tcp -e 1540 -c 2 -a 0 -i 33 -k RTR 
- -t 1.199706433 -s 0 -d 4 -p tcp -e 1540 -c 2 -a 0 -i 33 -k RTR
h -t 1.199706433 -s 0 -d 4 -p tcp -e 1540 -c 2 -a 0 -i 33 -k RTR
r -t 1.201592459 -s 0 -d 0 -p ack -e 40 -c 2 -a 0 -i 29 -k AGT
+ -t 1.201592459 -s 0 -d -1 -p tcp -e 1540 -c 2 -a 0 -i 34 -k AGT 
- -t 1.201592459 -s 0 -d -1 -p tcp -e 1540 -c 2 -a 0 -i 34 -k AGT
h -t 1.201592459 -s 0 -d -1 -p tcp -e 1540 -c 2 -a 0 -i 34 -k AGT
+ -t 1.201592459 -s 0 -d -1 -p tcp -e 1540 -c 2 -a 0 -i 35 -k AGT 
- -t 1.201592459 -s 0 -d -1 -p tcp -e 1540 -c 2 -a 0 -i 35 -k AGT
h -t 1.201592459 -s 0 -d -1 -p tcp -e 1540 -c 2 -a 0 -i 35 -k AGT
+ -t 1.201592459 -s 0 -d 4 -p tcp -e 1540 -c 2 -a 0 -i 34 -k RTR 
- -t 1.201592459 -s 0 -d 4 -p tcp -e 1540 -c 2 -a 0 -i 34 -k RTR
h -t 1.201592459 -s 0 -d 4 -p tcp -e 1540 -c 2 -a 0 -i 34 -k RTR
+ -t 1.201592459 -s 0 -d 4 -p tcp -e 1540 -c 2 -a 0 -i 35 -k RTR 
- -t 1.201592459 -s 0 -d 4 -p tcp -e 1540 -c 2 -a 0 -i 35 -k RTR
h -t 1.201592459 -s 0 -d 4 -p tcp -e 1540 -c 2 -a 0 -i 35 -k RTR
r -t 1.203538485 -s 0 -d 0 -p ack -e 40 -c 2 -a 0 -i 30 -k AGT
+ -t 1.203538485 -s 0 -d -1 -p tcp -e 1540 -c 2 -a 0 -i 36 -k AGT 
- -t 1.203538485 -s 0 -d -1 -p tcp -e 1540 -c 2 -a 0 -i 36 -k AGT
h -t 1.203538485 -s 0 -d -1 -p tcp -e 1540 -c 2 -a 0 -i 36 -k AGT
+ -t 1.203538485 -s 0 -d -1 -p tcp -e 1540 -c 2 -a 0 -i 37 -k AGT 
- -t 1.203538485 -s 0 -d -1 -p tcp -e 1540 -c 2 -a 0 -i 37 -k AGT
h -t 1.203538485 -s 0 -d -1 -p tcp -e 1540 -c 2 -a 0 -i 37 -k AGT
+ -t 1.203538485 -s 0 -d 4 -p tcp -e 1540 -c 2 -a 0 -i 36 -k RTR 
- -t 1.203538485 -s 0 -d 4 -p tcp -e 1540 -c 2 -a 0 -i 36 -k RTR
h -t 1.203538485 -s 0 -d 4 -p tcp -e 1540 -c 2 -a 0 -i 36 -k RTR
+ -t 1.203538485 -s 0 -d 4 -p tcp -e 1540 -c 2 -a 0 -i 37 -k RTR 
- -t 1.203538485 -s 0 -d 4 -p tcp -e 1540 -c 2 -a 0 -i 37 -k RTR
h -t 1.203538485 -s 0 -d 4 -p tcp -e 1540 -c 2 -a 0 -i 37 -k RTR
r -t 1.217684005 -s 4 -d 4 -p tcp -e 1540 -c 2 -a 0 -i 21 -k AGT
+ -t 1.217684005 -s 4 -d -1 -p ack -e 40 -c 2 -a 0 -i 38 -k AGT 
- -t 1.217684005 -s 4 -d -1 -p ack -e 40 -c 2 -a 0 -i 38 -k AGT
h -t 1.217684005 -s 4 -d -1 -p ack -e 40 -c 2 -a 0 -i 38 -k AGT
+ -t 1.217684005 -s 4 -d 0 -p ack -e 40 -c 2 -a 0 -i 38 -k RTR 
- -t 1.217684005 -s 4 -d 0 -p ack -e 40 -c 2 -a 0 -i 38 -k RTR
h -t 1.217684005 -s 4 -d 0 -p ack -e 40 -c 2 -a 0 -i 38 -k RTR
r -t 1.219529525 -s 0 -d 0 -p ack -e 40 -c 2 -a 0 -i 31 -k AGT
+ -t 1.219529525 -s 0 -d -1 -p tcp -e 1540 -c 2 -a 0 -i 39 -k AGT 
- -t 1.219529525 -s 0 -d -1 -p tcp -e 1540 -c 2 -a 0 -i 39 -k AGT
h -t 1.219529525 -s 0 -d -1 -p tcp -e 1540 -c 2 -a 0 -i 39 -k AGT
+ -t 1.219529525 -s 0 -d -1 -p tcp -e 1540 -c 2 -a 0 -i 40 -k AGT 
- -t 1.219529525 -s 0 -d -1 -p tcp -e 1540 -c 2 -a 0 -i 40 -k AGT
h -t 1.219529525 -s 0 -d -1 -p tcp -e 1540 -c 2 -a 0 -i 40 -k AGT
+ -t 1.219529525 -s 0 -d 4 -p tcp -e 1540 -c 2 -a 0 -i 39 -k RTR 
- -t 1.219529525 -s 0 -d 4 -p tcp -e 1540 -c 2 -a 0 -i 39 -k RTR
h -t 1.219529525 -s 0 -d 4 -p tcp -e 1540 -c 2 -a 0 -i 39 -k RTR
+ -t 1.219529525 -s 0 -d 4 -p tcp -e 1540 -c 2 -a 0 -i 40 -k RTR 
- -t 1.219529525 -s 0 -d 4 -p tcp -e 1540 -c 2 -a 0 -i 40 -k RTR
h -t 1.219529525 -s 0 -d 4 -p tcp -e 1540 -c 2 -a 0 -i 40 -k RTR
r -t 1.221635552 -s 0 -d 0 -p ack -e 40 -c 2 -a 0 -i 38 -k AGT
+ -t 1.221635552 -s 0 -d -1 -p tcp -e 1540 -c 2 -a 0 -i 41 -k AGT 
- -t 1.221635552 -s 0 -d -1 -p tcp -e 1540 -c 2 -a 0 -i 41 -k AGT
h -t 1.221635552 -s 0 -d -1 -p tcp -e 1540 -c 2 -a 0 -i 41 -k AGT
+ -t 1.221635552 -s 0 -d -1 -p tcp -e 1540 -c 2 -a 0 -i 42 -k AGT 
- -t 1.221635552 -s 0 -d -1 -p tcp -e 1540 -c 2 -a 0 -i 42 -k AGT
h -t 1.221635552 -s 0 -d -1 -p tcp -e 1540 -c 2 -a 0 -i 42 -k AGT
+ -t 1.221635552 -s 0 -d 4 -p tcp -e 1540 -c 2 -a 0 -i 41 -k RTR 
- -t 1.221635552 -s 0 -d 4 -p tcp -e 1540 -c 2 -a 0 -i 41 -k RTR
h -t 1.221635552 -s 0 -d 4 -p tcp -e 1540 -c 2 -a 0 -i 41 -k RTR
+ -t 1.221635552 -s 0 -d 4 -p tcp -e 1540 -c 2 -a 0 -i 42 -k RTR 
- -t 1.221635552 -s 0 -d 4 -p tcp -e 1540 -c 2 -a 0 -i 42 -k RTR
h -t 1.221635552 -s 0 -d 4 -p tcp -e 1540 -c 2 -a 0 -i 42 -k RTR
r -t 1.235661073 -s 4 -d 4 -p tcp -e 1540 -c 2 -a 0 -i 22 -k AGT
+ -t 1.235661073 -s 4 -d -1 -p ack -e 40 -c 2 -a 0 -i 43 -k AGT 
- -t 1.235661073 -s 4 -d -1 -p ack -e 40 -c 2 -a 0 -i 43 -k AGT
h -t 1.235661073 -s 4 -d -1 -p ack -e 40 -c 2 -a 0 -i 43 -k AGT
+ -t 1.235661073 -s 4 -d 0 -p ack -e 40 -c 2 -a 0 -i 43 -k RTR 
- -t 1.235661073 -s 4 -d 0 -p ack -e 40 -c 2 -a 0 -i 43 -k RTR
h -t 1.235661073 -s 4 -d 0 -p ack -e 40 -c 2 -a 0 -i 43 -k RTR
r -t 1.237766594 -s 0 -d 0 -p ack -e 40 -c 2 -a 0 -i 43 -k AGT
+ -t 1.237766594 -s 0 -d -1 -p tcp -e 1540 -c 2 -a 0 -i 44 -k AGT 
- -t 1.237766594 -s 0 -d -1 -p tcp -e 1540 -c 2 -a 0 -i 44 -k AGT
h -t 1.237766594 -s 0 -d -1 -p tcp -e 1540 -c 2 -a 0 -i 44 -k AGT
+ -t 1.237766594 -s 0 -d -1 -p tcp -e 1540 -c 2 -a 0 -i 45 -k AGT 
- -t 1.237766594 -s 0 -d -1 -p tcp -e 1540 -c 2 -a 0 -i 45 -k AGT
h -t 1.237766594 -s 0 -d -1 -p tcp -e 1540 -c 2 -a 0 -i 45 -k AGT
+ -t 1.237766594 -s 0 -d 4 -p tcp -e 1540 -c 2 -a 0 -i 44 -k RTR 
- -t 1.237766594 -s 0 -d 4 -p tcp -e 1540 -c 2 -a 0 -i 44 -k RTR
h -t 1.237766594 -s 0 -d 4 -p tcp -e 1540 -c 2 -a 0 -i 44 -k RTR
+ -t 1.237766594 -s 0 -d 4 -p tcp -e 1540 -c 2 -a 0 -i 45 -k RTR 
- -t 1.237766594 -s 0 -d 4 -p tcp -e 1540 -c 2 -a 0 -i 45 -k RTR
h -t 1.237766594 -s 0 -d 4 -p tcp -e 1540 -c 2 -a 0 -i 45 -k RTR
r -t 1.251792115 -s 4 -d 4 -p tcp -e 1540 -c 2 -a 0 -i 23 -k AGT
+ -t 1.251792115 -s 4 -d -1 -p ack -e 40 -c 2 -a 0 -i 46 -k AGT 
- -t 1.251792115 -s 4 -d -1 -p ack -e 40 -c 2 -a 0 -i 46 -k AGT
h -t 1.251792115 -s 4 -d -1 -p ack -e 40 -c 2 -a 0 -i 46 -k AGT
+ -t 1.251792115 -s 4 -d 0 -p ack -e 40 -c 2 -a 0 -i 46 -k RTR 
- -t 1.251792115 -s 4 -d 0 -p ack -e 40 -c 2 -a 0 -i 46 -k RTR
h -t 1.251792115 -s 4 -d 0 -p ack -e 40 -c 2 -a 0 -i 46 -k RTR
r -t 1.253837637 -s 0 -d 0 -p ack -e 40 -c 2 -a 0 -i 46 -k AGT
+ -t 1.253837637 -s 0 -d -1 -p tcp -e 1540 -c 2 -a 0 -i 47 -k AGT 
- -t 1.253837637 -s 0 -d -1 -p tcp -e 1540 -c 2 -a 0 -i 47 -k AGT
h -t 1.253837637 -s 0 -d -1 -p tcp -e 1540 -c 2 -a 0 -i 47 -k AGT
+ -t 1.253837637 -s 0 -d -1 -p tcp -e 1540 -c 2 -a 0 -i 48 -k AGT 
- -t 1.253837637 -s 0 -d -1 -p tcp -e 1540 -c 2 -a 0 -i 48 -k AGT
h -t 1.253837637 -s 0 -d -1 -p tcp -e 1540 -c 2 -a 0 -i 48 -k AGT
+ -t 1.253837637 -s 0 -d 4 -p tcp -e 1540 -c 2 -a 0 -i 47 -k RTR 
- -t 1.253837637 -s 0 -d 4 -p tcp -e 1540 -c 2 -a 0 -i 47 -k RTR
h -t 1.253837637 -s 0 -d 4 -p tcp -e 1540 -c 2 -a 0 -i 47 -k RTR
+ -t 1.253837637 -s 0 -d 4 -p tcp -e 1540 -c 2 -a 0 -i 48 -k RTR 
- -t 1.253837637 -s 0 -d 4 -p tcp -e 1540 -c 2 -a 0 -i 48 -k RTR
h -t 1.253837637 -s 0 -d 4 -p tcp -e 1540 -c 2 -a 0 -i 48 -k RTR
r -t 1.267763159 -s 4 -d 4 -p tcp -e 1540 -c 2 -a 0 -i 24 -k AGT
+ -t 1.267763159 -s 4 -d -1 -p ack -e 40 -c 2 -a 0 -i 49 -k AGT 
- -t 1.267763159 -s 4 -d -1 -p ack -e 40 -c 2 -a 0 -i 49 -k AGT
h -t 1.267763159 -s 4 -d -1 -p ack -e 40 -c 2 -a 0 -i 49 -k AGT
+ -t 1.267763159 -s 4 -d 0 -p ack -e 40 -c 2 -a 0 -i 49 -k RTR 
- -t 1.267763159 -s 4 -d 0 -p ack -e 40 -c 2 -a 0 -i 49 -k RTR
h -t 1.267763159 -s 4 -d 0 -p ack -e 40 -c 2 -a 0 -i 49 -k RTR
r -t 1.269648681 -s 0 -d 0 -p ack -e 40 -c 2 -a 0 -i 49 -k AGT
+ -t 1.269648681 -s 0 -d -1 -p tcp -e 1540 -c 2 -a 0 -i 50 -k AGT 
- -t 1.269648681 -s 0 -d -1 -p tcp -e 1540 -c 2 -a 0 -i 50 -k AGT
h -t 1.269648681 -s 0 -d -1 -p tcp -e 1540 -c 2 -a 0 -i 50 -k AGT
+ -t 1.269648681 -s 0 -d -1 -p tcp -e 1540 -c 2 -a 0 -i 51 -k AGT 
- -t 1.269648681 -s 0 -d -1 -p tcp -e 1540 -c 2 -a 0 -i 51 -k AGT
h -t 1.269648681 -s 0 -d -1 -p tcp -e 1540 -c 2 -a 0 -i 51 -k AGT
+ -t 1.269648681 -s 0 -d 4 -p tcp -e 1540 -c 2 -a 0 -i 50 -k RTR 
- -t 1.269648681 -s 0 -d 4 -p tcp -e 1540 -c 2 -a 0 -i 50 -k RTR
h -t 1.269648681 -s 0 -d 4 -p tcp -e 1540 -c 2 -a 0 -i 50 -k RTR
+ -t 1.269648681 -s 0 -d 4 -p tcp -e 1540 -c 2 -a 0 -i 51 -k RTR 
- -t 1.269648681 -s 0 -d 4 -p tcp -e 1540 -c 2 -a 0 -i 51 -k RTR
h -t 1.269648681 -s 0 -d 4 -p tcp -e 1540 -c 2 -a 0 -i 51 -k RTR
r -t 1.283634203 -s 4 -d 4 -p tcp -e 1540 -c 2 -a 0 -i 27 -k AGT
+ -t 1.283634203 -s 4 -d -1 -p ack -e 40 -c 2 -a 0 -i 52 -k AGT 
- -t 1.283634203 -s 4 -d -1 -p ack -e 40 -c 2 -a 0 -i 52 -k AGT
h -t 1.283634203 -s 4 -d -1 -p ack -e 40 -c 2 -a 0 -i 52 -k AGT
+ -t 1.283634203 -s 4 -d 0 -p ack -e 40 -c 2 -a 0 -i 52 -k RTR 
- -t 1.283634203 -s 4 -d 0 -p ack -e 40 -c 2 -a 0 -i 52 -k RTR
h -t 1.283634203 -s 4 -d 0 -p ack -e 40 -c 2 -a 0 -i 52 -k RTR
r -t 1.297460234 -s 4 -d 4 -p tcp -e 1540 -c 2 -a 0 -i 28 -k AGT
+ -t 1.297460234 -s 4 -d -1 -p ack -e 40 -c 2 -a 0 -i 53 -k AGT 
- -t 1.297460234 -s 4 -d -1 -p ack -e 40 -c 2 -a 0 -i 53 -k AGT
h -t 1.297460234 -s 4 -d -1 -p ack -e 40 -c 2 -a 0 -i 53 -k AGT
+ -t 1.297460234 -s 4 -d 0 -p ack -e 40 -c 2 -a 0 -i 53 -k RTR 
- -t 1.297460234 -s 4 -d 0 -p ack -e 40 -c 2 -a 0 -i 53 -k RTR
h -t 1.297460234 -s 4 -d 0 -p ack -e 40 -c 2 -a 0 -i 53 -k RTR
r -t 1.311526265 -s 4 -d 4 -p tcp -e 1540 -c 2 -a 0 -i 32 -k AGT
+ -t 1.311526265 -s 4 -d -1 -p ack -e 40 -c 2 -a 0 -i 54 -k AGT 
- -t 1.311526265 -s 4 -d -1 -p ack -e 40 -c 2 -a 0 -i 54 -k AGT
h -t 1.311526265 -s 4 -d -1 -p ack -e 40 -c 2 -a 0 -i 54 -k AGT
+ -t 1.311526265 -s 4 -d 0 -p ack -e 40 -c 2 -a 0 -i 54 -k RTR 
- -t 1.311526265 -s 4 -d 0 -p ack -e 40 -c 2 -a 0 -i 54 -k RTR
h -t 1.311526265 -s 4 -d 0 -p ack -e 40 -c 2 -a 0 -i 54 -k RTR
r -t 1.313411789 -s 0 -d 0 -p ack -e 40 -c 2 -a 0 -i 52 -k AGT
+ -t 1.313411789 -s 0 -d -1 -p tcp -e 1540 -c 2 -a 0 -i 55 -k AGT 
- -t 1.313411789 -s 0 -d -1 -p tcp -e 1540 -c 2 -a 0 -i 55 -k AGT
h -t 1.313411789 -s 0 -d -1 -p tcp -e 1540 -c 2 -a 0 -i 55 -k AGT
+ -t 1.313411789 -s 0 -d -1 -p tcp -e 1540 -c 2 -a 0 -i 56 -k AGT 
- -t 1.313411789 -s 0 -d -1 -p tcp -e 1540 -c 2 -a 0 -i 56 -k AGT
h -t 1.313411789 -s 0 -d -1 -p tcp -e 1540 -c 2 -a 0 -i 56 -k AGT
+ -t 1.313411789 -s 0 -d 4 -p tcp -e 1540 -c 2 -a 0 -i 55 -k RTR 
- -t 1.313411789 -s 0 -d 4 -p tcp -e 1540 -c 2 -a 0 -i 55 -k RTR
h -t 1.313411789 -s 0 -d 4 -p tcp -e 1540 -c 2 -a 0 -i 55 -k RTR
+ -t 1.313411789 -s 0 -d 4 -p tcp -e 1540 -c 2 -a 0 -i 56 -k RTR 
- -t 1.313411789 -s 0 -d 4 -p tcp -e 1540 -c 2 -a 0 -i 56 -k RTR
h -t 1.313411789 -s 0 -d 4 -p tcp -e 1540 -c 2 -a 0 -i 56 -k RTR
r -t 1.327477314 -s 4 -d 4 -p tcp -e 1540 -c 2 -a 0 -i 33 -k AGT
+ -t 1.327477314 -s 4 -d -1 -p ack -e 40 -c 2 -a 0 -i 57 -k AGT 
- -t 1.327477314 -s 4 -d -1 -p ack -e 40 -c 2 -a 0 -i 57 -k AGT
h -t 1.327477314 -s 4 -d -1 -p ack -e 40 -c 2 -a 0 -i 57 -k AGT
+ -t 1.327477314 -s 4 -d 0 -p ack -e 40 -c 2 -a 0 -i 57 -k RTR 
- -t 1.327477314 -s 4 -d 0 -p ack -e 40 -c 2 -a 0 -i 57 -k RTR
h -t 1.327477314 -s 4 -d 0 -p ack -e 40 -c 2 -a 0 -i 57 -k RTR
r -t 1.341323347 -s 4 -d 4 -p tcp -e 1540 -c 2 -a 0 -i 34 -k AGT
+ -t 1.341323347 -s 4 -d -1 -p ack -e 40 -c 2 -a 0 -i 58 -k AGT 
- -t 1.341323347 -s 4 -d -1 -p ack -e 40 -c 2 -a 0 -i 58 -k AGT
h -t 1.341323347 -s 4 -d -1 -p ack -e 40 -c 2 -a 0 -i 58 -k AGT
+ -t 1.341323347 -s 4 -d 0 -p ack -e 40 -c 2 -a 0 -i 58 -k RTR 
- -t 1.341323347 -s 4 -d 0 -p ack -e 40 -c 2 -a 0 -i 58 -k RTR
h -t 1.341323347 -s 4 -d 0 -p ack -e 40 -c 2 -a 0 -i 58 -k RTR
r -t 1.343168872 -s 0 -d 0 -p ack -e 40 -c 2 -a 0 -i 53 -k AGT
+ -t 1.343168872 -s 0 -d -1 -p tcp -e 1540 -c 2 -a 0 -i 59 -k AGT 
- -t 1.343168872 -s 0 -d -1 -p tcp -e 1540 -c 2 -a 0 -i 59 -k AGT
h -t 1.343168872 -s 0 -d -1 -p tcp -e 1540 -c 2 -a 0 -i 59 -k AGT
+ -t 1.343168872 -s 0 -d -1 -p tcp -e 1540 -c 2 -a 0 -i 60 -k AGT 
- -t 1.343168872 -s 0 -d -1 -p tcp -e 1540 -c 2 -a 0 -i 60 -k AGT
h -t 1.343168872 -s 0 -d -1 -p tcp -e 1540 -c 2 -a 0 -i 60 -k AGT
+ -t 1.343168872 -s 0 -d 4 -p tcp -e 1540 -c 2 -a 0 -i 59 -k RTR 
- -t 1.343168872 -s 0 -d 4 -p tcp -e 1540 -c 2 -a 0 -i 59 -k RTR
h -t 1.343168872 -s 0 -d 4 -p tcp -e 1540 -c 2 -a 0 -i 59 -k RTR
+ -t 1.343168872 -s 0 -d 4 -p tcp -e 1540 -c 2 -a 0 -i 60 -k RTR 
- -t 1.343168872 -s 0 -d 4 -p tcp -e 1540 -c 2 -a 0 -i 60 -k RTR
h -t 1.343168872 -s 0 -d 4 -p tcp -e 1540 -c 2 -a 0 -i 60 -k RTR
r -t 1.345234906 -s 0 -d 0 -p ack -e 40 -c 2 -a 0 -i 54 -k AGT
+ -t 1.345234906 -s 0 -d -1 -p tcp -e 1540 -c 2 -a 0 -i 61 -k AGT 
- -t 1.345234906 -s 0 -d -1 -p tcp -e 1540 -c 2 -a 0 -i 61 -k AGT
h -t 1.345234906 -s 0 -d -1 -p tcp -e 1540 -c 2 -a 0 -i 61 -k AGT
+ -t 1.345234906 -s 0 -d 4 -p tcp -e 1540 -c 2 -a 0 -i 61 -k RTR 
- -t 1.345234906 -s 0 -d 4 -p tcp -e 1540 -c 2 -a 0 -i 61 -k RTR
h -t 1.345234906 -s 0 -d 4 -p tcp -e 1540 -c 2 -a 0 -i 61 -k RTR
r -t 1.347180940 -s 0 -d 0 -p ack -e 40 -c 2 -a 0 -i 57 -k AGT
+ -t 1.347180940 -s 0 -d -1 -p tcp -e 1540 -c 2 -a 0 -i 62 -k AGT 
- -t 1.347180940 -s 0 -d -1 -p tcp -e 1540 -c 2 -a 0 -i 62 -k AGT
h -t 1.347180940 -s 0 -d -1 -p tcp -e 1540 -c 2 -a 0 -i 62 -k AGT
+ -t 1.347180940 -s 0 -d 4 -p tcp -e 1540 -c 2 -a 0 -i 62 -k RTR 
- -t 1.347180940 -s 0 -d 4 -p tcp -e 1540 -c 2 -a 0 -i 62 -k RTR
h -t 1.347180940 -s 0 -d 4 -p tcp -e 1540 -c 2 -a 0 -i 62 -k RTR
r -t 1.361106465 -s 4 -d 4 -p tcp -e 1540 -c 2 -a 0 -i 35 -k AGT
+ -t 1.361106465 -s 4 -d -1 -p ack -e 40 -c 2 -a 0 -i 63 -k AGT 
- -t 1.361106465 -s 4 -d -1 -p ack -e 40 -c 2 -a 0 -i 63 -k AGT
h -t 1.361106465 -s 4 -d -1 -p ack -e 40 -c 2 -a 0 -i 63 -k AGT
+ -t 1.361106465 -s 4 -d 0 -p ack -e 40 -c 2 -a 0 -i 63 -k RTR 
- -t 1.361106465 -s 4 -d 0 -p ack -e 40 -c 2 -a 0 -i 63 -k RTR
h -t 1.361106465 -s 4 -d 0 -p ack -e 40 -c 2 -a 0 -i 63 -k RTR
r -t 1.374972500 -s 4 -d 4 -p tcp -e 1540 -c 2 -a 0 -i 36 -k AGT