s 1.200726898 _8_ AGT  --- 116 ack 40 [0 0 0 0] ------- [8:0 1:0 32 0] [46 0] 0 0
r 1.200726898 _8_ RTR  --- 116 ack 40 [0 0 0 0] ------- [8:0 1:0 32 0] [46 0] 0 0
s 1.200726898 _8_ RTR  --- 116 ack 40 [0 0 0 0] ------- [8:0 1:0 30 1] [46 0] 0 0
r 1.202957102 _0_ AGT  --- 72 ack 40 [13a 0 9 800] ------- [9:0 0:0 30 0] [0 0] 1 0
s 1.202957102 _0_ AGT  --- 117 tcp 41 [0 0 0 0] ------- [0:0 9:0 32 0] [1 0] 0 0
r 1.202957102 _0_ RTR  --- 117 tcp 41 [0 0 0 0] ------- [0:0 9:0 32 0] [1 0] 0 0
s 1.202957102 _0_ AGT  --- 118 tcp 41 [0 0 0 0] ------- [0:0 9:0 32 0] [2 0] 0 0
r 1.202957102 _0_ RTR  --- 118 tcp 41 [0 0 0 0] ------- [0:0 9:0 32 0] [2 0] 0 0
s 1.202957102 _0_ RTR  --- 117 tcp 41 [0 0 0 0] ------- [0:0 9:0 30 9] [1 0] 0 0
s 1.202957102 _0_ RTR  --- 118 tcp 41 [0 0 0 0] ------- [0:0 9:0 30 9] [2 0] 0 0
r 1.205268108 _1_ AGT  --- 113 ack 40 [13a 1 8 800] ------- [8:0 1:0 30 1] [45 0] 1 0
s 1.205268108 _1_ AGT  --- 119 tcp 41 [0 0 0 0] ------- [1:0 8:0 32 0] [65 0] 0 0
r 1.205268108 _1_ RTR  --- 119 tcp 41 [0 0 0 0] ------- [1:0 8:0 32 0] [65 0] 0 0
s 1.205268108 _1_ RTR  --- 119 tcp 41 [0 0 0 0] ------- [1:0 8:0 30 8] [65 0] 0 0
r 1.207141737 _8_ AGT  --- 82 tcp 41 [13a 8 1 800] ------- [1:0 8:0 30 8] [47 0] 1 0
s 1.207141737 _8_ AGT  --- 120 ack 40 [0 0 0 0] ------- [8:0 1:0 32 0] [47 0] 0 0
r 1.207141737 _8_ RTR  --- 120 ack 40 [0 0 0 0] ------- [8:0 1:0 32 0] [47 0] 0 0
s 1.207141737 _8_ RTR  --- 120 ack 40 [0 0 0 0] ------- [8:0 1:0 30 1] [47 0] 0 0
r 1.209167366 _1_ AGT  --- 116 ack 40 [13a 1 8 800] ------- [8:0 1:0 30 1] [46 0] 1 0
s 1.209167366 _1_ AGT  --- 121 tcp 41 [0 0 0 0] ------- [1:0 8:0 32 0] [66 0] 0 0
r 1.209167366 _1_ RTR  --- 121 tcp 41 [0 0 0 0] ------- [1:0 8:0 32 0] [66 0] 0 0
s 1.209167366 _1_ RTR  --- 121 tcp 41 [0 0 0 0] ------- [1:0 8:0 30 8] [66 0] 0 0
r 1.211133539 _1_ AGT  --- 120 ack 40 [13a 1 8 800] ------- [8:0 1:0 30 1] [47 0] 1 0
s 1.211133539 _1_ AGT  --- 122 tcp 41 [0 0 0 0] ------- [1:0 8:0 32 0] [67 0] 0 0
r 1.211133539 _1_ RTR  --- 122 tcp 41 [0 0 0 0] ------- [1:0 8:0 32 0] [67 0] 0 0
s 1.211133539 _1_ RTR  --- 122 tcp 41 [0 0 0 0] ------- [1:0 8:0 30 8] [67 0] 0 0
r 1.213167168 _8_ AGT  --- 85 tcp 41 [13a 8 1 800] ------- [1:0 8:0 30 8] [48 0] 1 0
s 1.213167168 _8_ AGT  --- 123 ack 40 [0 0 0 0] ------- [8:0 1:0 32 0] [48 0] 0 0
r 1.213167168 _8_ RTR  --- 123 ack 40 [0 0 0 0] ------- [8:0 1:0 32 0] [48 0] 0 0
s 1.213167168 _8_ RTR  --- 123 ack 40 [0 0 0 0] ------- [8:0 1:0 30 1] [48 0] 0 0
r 1.215052797 _1_ AGT  --- 123 ack 40 [13a 1 8 800] ------- [8:0 1:0 30 1] [48 0] 1 0
s 1.215052797 _1_ AGT  --- 124 tcp 41 [0 0 0 0] ------- [1:0 8:0 32 0] [68 0] 0 0
r 1.215052797 _1_ RTR  --- 124 tcp 41 [0 0 0 0] ------- [1:0 8:0 32 0] [68 0] 0 0
s 1.215052797 _1_ RTR  --- 124 tcp 41 [0 0 0 0] ------- [1:0 8:0 30 8] [68 0] 0 0
r 1.217350837 _9_ AGT  --- 117 tcp 41 [13a 9 0 800] ------- [0:0 9:0 30 9] [1 0] 1 0
s 1.217350837 _9_ AGT  --- 125 ack 40 [0 0 0 0] ------- [9:0 0:0 32 0] [1 0] 0 0
r 1.217350837 _9_ RTR  --- 125 ack 40 [0 0 0 0] ------- [9:0 0:0 32 0] [1 0] 0 0
s 1.217350837 _9_ RTR  --- 125 ack 40 [0 0 0 0] ------- [9:0 0:0 30 0] [1 0] 0 0
r 1.219183684 _9_ AGT  --- 118 tcp 41 [13a 9 0 800] ------- [0:0 9:0 30 9] [2 0] 1 0
s 1.219183684 _9_ AGT  --- 126 ack 40 [0 0 0 0] ------- [9:0 0:0 32 0] [2 0] 0 0
r 1.219183684 _9_ RTR  --- 126 ack 40 [0 0 0 0] ------- [9:0 0:0 32 0] [2 0] 0 0
s 1.219183684 _9_ RTR  --- 126 ack 40 [0 0 0 0] ------- [9:0 0:0 30 0] [2 0] 0 0
r 1.221188319 _0_ AGT  --- 125 ack 40 [13a 0 9 800] ------- [9:0 0:0 30 0] [1 0] 1 0
s 1.221188319 _0_ AGT  --- 127 tcp 41 [0 0 0 0] ------- [0:0 9:0 32 0] [3 0] 0 0
r 1.221188319 _0_ RTR  --- 127 tcp 41 [0 0 0 0] ------- [0:0 9:0 32 0] [3 0] 0 0
s 1.221188319 _0_ AGT  --- 128 tcp 41 [0 0 0 0] ------- [0:0 9:0 32 0] [4 0] 0 0
r 1.221188319 _0_ RTR  --- 128 tcp 41 [0 0 0 0] ------- [0:0 9:0 32 0] [4 0] 0 0
s 1.221188319 _0_ RTR  --- 127 tcp 41 [0 0 0 0] ------- [0:0 9:0 30 9] [3 0] 0 0
s 1.221188319 _0_ RTR  --- 128 tcp 41 [0 0 0 0] ------- [0:0 9:0 30 9] [4 0] 0 0
r 1.223240954 _9_ AGT  --- 127 tcp 41 [13a 9 0 800] ------- [0:0 9:0 30 9] [3 0] 1 0
s 1.223240954 _9_ AGT  --- 129 ack 40 [0 0 0 0] ------- [9:0 0:0 32 0] [3 0] 0 0
r 1.223240954 _9_ RTR  --- 129 ack 40 [0 0 0 0] ------- [9:0 0:0 32 0] [3 0] 0 0
s 1.223240954 _9_ RTR  --- 129 ack 40 [0 0 0 0] ------- [9:0 0:0 30 0] [3 0] 0 0
r 1.225313801 _9_ AGT  --- 128 tcp 41 [13a 9 0 800] ------- [0:0 9:0 30 9] [4 0] 1 0
s 1.225313801 _9_ AGT  --- 130 ack 40 [0 0 0 0] ------- [9:0 0:0 32 0] [4 0] 0 0
r 1.225313801 _9_ RTR  --- 130 ack 40 [0 0 0 0] ------- [9:0 0:0 32 0] [4 0] 0 0
s 1.225313801 _9_ RTR  --- 130 ack 40 [0 0 0 0] ------- [9:0 0:0 30 0] [4 0] 0 0
r 1.227198436 _0_ AGT  --- 126 ack 40 [13a 0 9 800] ------- [9:0 0:0 30 0] [2 0] 1 0
s 1.227198436 _0_ AGT  --- 131 tcp 41 [0 0 0 0] ------- [0:0 9:0 32 0] [5 0] 0 0
r 1.227198436 _0_ RTR  --- 131 tcp 41 [0 0 0 0] ------- [0:0 9:0 32 0] [5 0] 0 0
s 1.227198436 _0_ AGT  --- 132 tcp 41 [0 0 0 0] ------- [0:0 9:0 32 0] [6 0] 0 0
r 1.227198436 _0_ RTR  --- 132 tcp 41 [0 0 0 0] ------- [0:0 9:0 32 0] [6 0] 0 0
s 1.227198436 _0_ RTR  --- 131 tcp 41 [0 0 0 0] ------- [0:0 9:0 30 9] [5 0] 0 0
s 1.227198436 _0_ RTR  --- 132 tcp 41 [0 0 0 0] ------- [0:0 9:0 30 9] [6 0] 0 0
r 1.229151072 _9_ AGT  --- 131 tcp 41 [13a 9 0 800] ------- [0:0 9:0 30 9] [5 0] 1 0
s 1.229151072 _9_ AGT  --- 133 ack 40 [0 0 0 0] ------- [9:0 0:0 32 0] [5 0] 0 0
r 1.229151072 _9_ RTR  --- 133 ack 40 [0 0 0 0] ------- [9:0 0:0 32 0] [5 0] 0 0
s 1.229151072 _9_ RTR  --- 133 ack 40 [0 0 0 0] ------- [9:0 0:0 30 0] [5 0] 0 0
r 1.231143919 _9_ AGT  --- 132 tcp 41 [13a 9 0 800] ------- [0:0 9:0 30 9] [6 0] 1 0
s 1.231143919 _9_ AGT  --- 134 ack 40 [0 0 0 0] ------- [9:0 0:0 32 0] [6 0] 0 0
r 1.231143919 _9_ RTR  --- 134 ack 40 [0 0 0 0] ------- [9:0 0:0 32 0] [6 0] 0 0
s 1.231143919 _9_ RTR  --- 134 ack 40 [0 0 0 0] ------- [9:0 0:0 30 0] [6 0] 0 0
r 1.233068554 _0_ AGT  --- 129 ack 40 [13a 0 9 800] ------- [9:0 0:0 30 0] [3 0] 1 0
s 1.233068554 _0_ AGT  --- 135 tcp 41 [0 0 0 0] ------- [0:0 9:0 32 0] [7 0] 0 0
r 1.233068554 _0_ RTR  --- 135 tcp 41 [0 0 0 0] ------- [0:0 9:0 32 0] [7 0] 0 0
s 1.233068554 _0_ AGT  --- 136 tcp 41 [0 0 0 0] ------- [0:0 9:0 32 0] [8 0] 0 0
r 1.233068554 _0_ RTR  --- 136 tcp 41 [0 0 0 0] ------- [0:0 9:0 32 0] [8 0] 0 0
s 1.233068554 _0_ RTR  --- 135 tcp 41 [0 0 0 0] ------- [0:0 9:0 30 9] [7 0] 0 0
s 1.233068554 _0_ RTR  --- 136 tcp 41 [0 0 0 0] ------- [0:0 9:0 30 9] [8 0] 0 0
r 1.235287587 _8_ AGT  --- 87 tcp 41 [13a 8 1 800] ------- [1:0 8:0 30 8] [49 0] 1 0
s 1.235287587 _8_ AGT  --- 137 ack 40 [0 0 0 0] ------- [8:0 1:0 32 0] [49 0] 0 0
r 1.235287587 _8_ RTR  --- 137 ack 40 [0 0 0 0] ------- [8:0 1:0 32 0] [49 0] 0 0
s 1.235287587 _8_ RTR  --- 137 ack 40 [0 0 0 0] ------- [8:0 1:0 30 1] [49 0] 0 0
r 1.237253216 _1_ AGT  --- 137 ack 40 [13a 1 8 800] ------- [8:0 1:0 30 1] [49 0] 1 0
s 1.237253216 _1_ AGT  --- 138 tcp 41 [0 0 0 0] ------- [1:0 8:0 32 0] [69 0] 0 0
r 1.237253216 _1_ RTR  --- 138 tcp 41 [0 0 0 0] ------- [1:0 8:0 32 0] [69 0] 0 0
s 1.237253216 _1_ RTR  --- 138 tcp 41 [0 0 0 0] ------- [1:0 8:0 30 8] [69 0] 0 0
r 1.239491256 _9_ AGT  --- 135 tcp 41 [13a 9 0 800] ------- [0:0 9:0 30 9] [7 0] 1 0
s 1.239491256 _9_ AGT  --- 139 ack 40 [0 0 0 0] ------- [9:0 0:0 32 0] [7 0] 0 0
r 1.239491256 _9_ RTR  --- 139 ack 40 [0 0 0 0] ------- [9:0 0:0 32 0] [7 0] 0 0
s 1.239491256 _9_ RTR  --- 139 ack 40 [0 0 0 0] ------- [9:0 0:0 30 0] [7 0] 0 0
r 1.241364103 _9_ AGT  --- 136 tcp 41 [13a 9 0 800] ------- [0:0 9:0 30 9] [8 0] 1 0
s 1.241364103 _9_ AGT  --- 140 ack 40 [0 0 0 0] ------- [9:0 0:0 32 0] [8 0] 0 0
r 1.241364103 _9_ RTR  --- 140 ack 40 [0 0 0 0] ------- [9:0 0:0 32 0] [8 0] 0 0
s 1.241364103 _9_ RTR  --- 140 ack 40 [0 0 0 0] ------- [9:0 0:0 30 0] [8 0] 0 0
r 1.243328738 _0_ AGT  --- 130 ack 40 [13a 0 9 800] ------- [9:0 0:0 30 0] [4 0] 1 0
s 1.243328738 _0_ AGT  --- 141 tcp 41 [0 0 0 0] ------- [0:0 9:0 32 0] [9 0] 0 0
r 1.243328738 _0_ RTR  --- 141 tcp 41 [0 0 0 0] ------- [0:0 9:0 32 0] [9 0] 0 0
s 1.243328738 _0_ AGT  --- 142 tcp 41 [0 0 0 0] ------- [0:0 9:0 32 0] [10 0] 0 0
r 1.243328738 _0_ RTR  --- 142 tcp 41 [0 0 0 0] ------- [0:0 9:0 32 0] [10 0] 0 0
s 1.243328738 _0_ RTR  --- 141 tcp 41 [0 0 0 0] ------- [0:0 9:0 30 9] [9 0] 0 0
s 1.243328738 _0_ RTR  --- 142 tcp 41 [0 0 0 0] ------- [0:0 9:0 30 9] [10 0] 0 0
r 1.245521373 _9_ AGT  --- 141 tcp 41 [13a 9 0 800] ------- [0:0 9:0 30 9] [9 0] 1 0
s 1.245521373 _9_ AGT  --- 143 ack 40 [0 0 0 0] ------- [9:0 0:0 32 0] [9 0] 0 0
r 1.245521373 _9_ RTR  --- 143 ack 40 [0 0 0 0] ------- [9:0 0:0 32 0] [9 0] 0 0
s 1.245521373 _9_ RTR  --- 143 ack 40 [0 0 0 0] ------- [9:0 0:0 30 0] [9 0] 0 0
r 1.247354220 _9_ AGT  --- 142 tcp 41 [13a 9 0 800] ------- [0:0 9:0 30 9] [10 0] 1 0
s 1.247354220 _9_ AGT  --- 144 ack 40 [0 0 0 0] ------- [9:0 0:0 32 0] [10 0] 0 0
r 1.247354220 _9_ RTR  --- 144 ack 40 [0 0 0 0] ------- [9:0 0:0 32 0] [10 0] 0 0
s 1.247354220 _9_ RTR  --- 144 ack 40 [0 0 0 0] ------- [9:0 0:0 30 0] [10 0] 0 0
r 1.249198855 _0_ AGT  --- 133 ack 40 [13a 0 9 800] ------- [9:0 0:0 30 0] [5 0] 1 0
s 1.249198855 _0_ AGT  --- 145 tcp 41 [0 0 0 0] ------- [0:0 9:0 32 0] [11 0] 0 0
r 1.249198855 _0_ RTR  --- 145 tcp 41 [0 0 0 0] ------- [0:0 9:0 32 0] [11 0] 0 0
s 1.249198855 _0_ AGT  --- 146 tcp 41 [0 0 0 0] ------- [0:0 9:0 32 0] [12 0] 0 0
r 1.249198855 _0_ RTR  --- 146 tcp 41 [0 0 0 0] ------- [0:0 9:0 32 0] [12 0] 0 0
s 1.249198855 _0_ RTR  --- 145 tcp 41 [0 0 0 0] ------- [0:0 9:0 30 9] [11 0] 0 0
s 1.249198855 _0_ RTR  --- 146 tcp 41 [0 0 0 0] ------- [0:0 9:0 30 9] [12 0] 0 0
r 1.251111490 _9_ AGT  --- 145 tcp 41 [13a 9 0 800] ------- [0:0 9:0 30 9] [11 0] 1 0
s 1.251111490 _9_ AGT  --- 147 ack 40 [0 0 0 0] ------- [9:0 0:0 32 0] [11 0] 0 0
r 1.251111490 _9_ RTR  --- 147 ack 40 [0 0 0 0] ------- [9:0 0:0 32 0] [11 0] 0 0
s 1.251111490 _9_ RTR  --- 147 ack 40 [0 0 0 0] ------- [9:0 0:0 30 0] [11 0] 0 0
r 1.253244337 _9_ AGT  --- 146 tcp 41 [13a 9 0 800] ------- [0:0 9:0 30 9] [12 0] 1 0
s 1.253244337 _9_ AGT  --- 148 ack 40 [0 0 0 0] ------- [9:0 0:0 32 0] [12 0] 0 0
r 1.253244337 _9_ RTR  --- 148 ack 40 [0 0 0 0] ------- [9:0 0:0 32 0] [12 0] 0 0
s 1.253244337 _9_ RTR  --- 148 ack 40 [0 0 0 0] ------- [9:0 0:0 30 0] [12 0] 0 0
r 1.255268973 _0_ AGT  --- 134 ack 40 [13a 0 9 800] ------- [9:0 0:0 30 0] [6 0] 1 0
s 1.255268973 _0_ AGT  --- 149 tcp 41 [0 0 0 0] ------- [0:0 9:0 32 0] [13 0] 0 0
r 1.255268973 _0_ RTR  --- 149 tcp 41 [0 0 0 0] ------- [0:0 9:0 32 0] [13 0] 0 0
s 1.255268973 _0_ AGT  --- 150 tcp 41 [0 0 0 0] ------- [0:0 9:0 32 0] [14 0] 0 0
r 1.255268973 _0_ RTR  --- 150 tcp 41 [0 0 0 0] ------- [0:0 9:0 32 0] [14 0] 0 0
s 1.255268973 _0_ RTR  --- 149 tcp 41 [0 0 0 0] ------- [0:0 9:0 30 9] [13 0] 0 0
s 1.255268973 _0_ RTR  --- 150 tcp 41 [0 0 0 0] ------- [0:0 9:0 30 9] [14 0] 0 0
r 1.257261608 _9_ AGT  --- 149 tcp 41 [13a 9 0 800] ------- [0:0 9:0 30 9] [13 0] 1 0
s 1.257261608 _9_ AGT  --- 151 ack 40 [0 0 0 0] ------- [9:0 0:0 32 0] [13 0] 0 0
r 1.257261608 _9_ RTR  --- 151 ack 40 [0 0 0 0] ------- [9:0 0:0 32 0] [13 0] 0 0
s 1.257261608 _9_ RTR  --- 151 ack 40 [0 0 0 0] ------- [9:0 0:0 30 0] [13 0] 0 0
r 1.259266243 _0_ AGT  --- 139 ack 40 [13a 0 9 800] ------- [9:0 0:0 30 0] [7 0] 1 0
s 1.259266243 _0_ AGT  --- 152 tcp 41 [0 0 0 0] ------- [0:0 9:0 32 0] [15 0] 0 0
r 1.259266243 _0_ RTR  --- 152 tcp 41 [0 0 0 0] ------- [0:0 9:0 32 0] [15 0] 0 0
s 1.259266243 _0_ AGT  --- 153 tcp 41 [0 0 0 0] ------- [0:0 9:0 32 0] [16 0] 0 0
r 1.259266243 _0_ RTR  --- 153 tcp 41 [0 0 0 0] ------- [0:0 9:0 32 0] [16 0] 0 0
s 1.259266243 _0_ RTR  --- 152 tcp 41 [0 0 0 0] ------- [0:0 9:0 30 9] [15 0] 0 0
s 1.259266243 _0_ RTR  --- 153 tcp 41 [0 0 0 0] ------- [0:0 9:0 30 9] [16 0] 0 0
r 1.261131090 _0_ AGT  --- 140 ack 40 [13a 0 9 800] ------- [9:0 0:0 30 0] [8 0] 1 0
s 1.261131090 _0_ AGT  --- 154 tcp 41 [0 0 0 0] ------- [0:0 9:0 32 0] [17 0] 0 0
r 1.261131090 _0_ RTR  --- 154 tcp 41 [0 0 0 0] ------- [0:0 9:0 32 0] [17 0] 0 0
s 1.261131090 _0_ AGT  --- 155 tcp 41 [0 0 0 0] ------- [0:0 9:0 32 0] [18 0] 0 0
r 1.261131090 _0_ RTR  --- 155 tcp 41 [0 0 0 0] ------- [0:0 9:0 32 0] [18 0] 0 0
s 1.261131090 _0_ RTR  --- 154 tcp 41 [0 0 0 0] ------- [0:0 9:0 30 9] [17 0] 0 0
s 1.261131090 _0_ RTR  --- 155 tcp 41 [0 0 0 0] ------- [0:0 9:0 30 9] [18 0] 0 0
r 1.263243725 _9_ AGT  --- 150 tcp 41 [13a 9 0 800] ------- [0:0 9:0 30 9] [14 0] 1 0
s 1.263243725 _9_ AGT  --- 156 ack 40 [0 0 0 0] ------- [9:0 0:0 32 0] [14 0] 0 0
r 1.263243725 _9_ RTR  --- 156 ack 40 [0 0 0 0] ------- [9:0 0:0 32 0] [14 0] 0 0
s 1.263243725 _9_ RTR  --- 156 ack 40 [0 0 0 0] ------- [9:0 0:0 30 0] [14 0] 0 0
r 1.265328360 _0_ AGT  --- 143 ack 40 [13a 0 9 800] ------- [9:0 0:0 30 0] [9 0] 1 0
s 1.265328360 _0_ AGT  --- 157 tcp 41 [0 0 0 0] ------- [0:0 9:0 32 0] [19 0] 0 0
r 1.265328360 _0_ RTR  --- 157 tcp 41 [0 0 0 0] ------- [0:0 9:0 32 0] [19 0] 0 0
s 1.265328360 _0_ AGT  --- 158 tcp 41 [0 0 0 0] ------- [0:0 9:0 32 0] [20 0] 0 0
r 1.265328360 _0_ RTR  --- 158 tcp 41 [0 0 0 0] ------- [0:0 9:0 32 0] [20 0] 0 0
s 1.265328360 _0_ RTR  --- 157 tcp 41 [0 0 0 0] ------- [0:0 9:0 30 9] [19 0] 0 0
s 1.265328360 _0_ RTR  --- 158 tcp 41 [0 0 0 0] ------- [0:0 9:0 30 9] [20 0] 0 0
r 1.267233207 _0_ AGT  --- 144 ack 40 [13a 0 9 800] ------- [9:0 0:0 30 0] [10 0] 1 0
s 1.267233207 _0_ AGT  --- 159 tcp 41 [0 0 0 0] ------- [0:0 9:0 32 0] [21 0] 0 0
r 1.267233207 _0_ RTR  --- 159 tcp 41 [0 0 0 0] ------- [0:0 9:0 32 0] [21 0] 0 0
s 1.267233207 _0_ AGT  --- 160 tcp 41 [0 0 0 0] ------- [0:0 9:0 32 0] [22 0] 0 0
r 1.267233207 _0_ RTR  --- 160 tcp 41 [0 0 0 0] ------- [0:0 9:0 32 0] [22 0] 0 0
s 1.267233207 _0_ RTR  --- 159 tcp 41 [0 0 0 0] ------- [0:0 9:0 30 9] [21 0] 0 0
s 1.267233207 _0_ RTR  --- 160 tcp 41 [0 0 0 0] ------- [0:0 9:0 30 9] [22 0] 0 0
r 1.269245842 _9_ AGT  --- 152 tcp 41 [13a 9 0 800] ------- [0:0 9:0 30 9] [15 0] 1 0
s 1.269245842 _9_ AGT  --- 161 ack 40 [0 0 0 0] ------- [9:0 0:0 32 0] [15 0] 0 0
r 1.269245842 _9_ RTR  --- 161 ack 40 [0 0 0 0] ------- [9:0 0:0 32 0] [15 0] 0 0
s 1.269245842 _9_ RTR  --- 161 ack 40 [0 0 0 0] ------- [9:0 0:0 30 0] [15 0] 0 0
r 1.271078689 _9_ AGT  --- 153 tcp 41 [13a 9 0 800] ------- [0:0 9:0 30 9] [16 0] 1 0
s 1.271078689 _9_ AGT  --- 162 ack 40 [0 0 0 0] ------- [9:0 0:0 32 0] [16 0] 0 0
r 1.271078689 _9_ RTR  --- 162 ack 40 [0 0 0 0] ------- [9:0 0:0 32 0] [16 0] 0 0
s 1.271078689 _9_ RTR  --- 162 ack 40 [0 0 0 0] ------- [9:0 0:0 30 0] [16 0] 0 0
r 1.273297933 _8_ AGT  --- 88 tcp 41 [13a 8 1 800] ------- [1:0 8:0 30 8] [50 0] 1 0
s 1.273297933 _8_ AGT  --- 163 ack 40 [0 0 0 0] ------- [8:0 1:0 32 0] [50 0] 0 0
r 1.273297933 _8_ RTR  --- 163 ack 40 [0 0 0 0] ------- [8:0 1:0 32 0] [50 0] 0 0
s 1.273297933 _8_ RTR  --- 163 ack 40 [0 0 0 0] ------- [8:0 1:0 30 1] [50 0] 0 0
r 1.275243562 _1_ AGT  --- 163 ack 40 [13a 1 8 800] ------- [8:0 1:0 30 1] [50 0] 1 0
s 1.275243562 _1_ AGT  --- 164 tcp 41 [0 0 0 0] ------- [1:0 8:0 32 0] [70 0] 0 0
r 1.275243562 _1_ RTR  --- 164 tcp 41 [0 0 0 0] ------- [1:0 8:0 32 0] [70 0] 0 0
s 1.275243562 _1_ RTR  --- 164 tcp 41 [0 0 0 0] ------- [1:0 8:0 30 8] [70 0] 0 0
r 1.277297191 _8_ AGT  --- 89 tcp 41 [13a 8 1 800] ------- [1:0 8:0 30 8] [51 0] 1 0
s 1.277297191 _8_ AGT  --- 165 ack 40 [0 0 0 0] ------- [8:0 1:0 32 0] [51 0] 0 0
r 1.277297191 _8_ RTR  --- 165 ack 40 [0 0 0 0] ------- [8:0 1:0 32 0] [51 0] 0 0
s 1.277297191 _8_ RTR  --- 165 ack 40 [0 0 0 0] ------- [8:0 1:0 30 1] [51 0] 0 0
r 1.279191363 _8_ AGT  --- 94 tcp 41 [13a 8 1 800] ------- [1:0 8:0 30 8] [52 0] 1 0
s 1.279191363 _8_ AGT  --- 166 ack 40 [0 0 0 0] ------- [8:0 1:0 32 0] [52 0] 0 0
r 1.279191363 _8_ RTR  --- 166 ack 40 [0 0 0 0] ------- [8:0 1:0 32 0] [52 0] 0 0
s 1.279191363 _8_ RTR  --- 166 ack 40 [0 0 0 0] ------- [8:0 1:0 30 1] [52 0] 0 0
r 1.281136992 _1_ AGT  --- 165 ack 40 [13a 1 8 800] ------- [8:0 1:0 30 1] [51 0] 1 0
s 1.281136992 _1_ AGT  --- 167 tcp 41 [0 0 0 0] ------- [1:0 8:0 32 0] [71 0] 0 0
r 1.281136992 _1_ RTR  --- 167 tcp 41 [0 0 0 0] ------- [1:0 8:0 32 0] [71 0] 0 0
s 1.281136992 _1_ RTR  --- 167 tcp 41 [0 0 0 0] ------- [1:0 8:0 30 8] [71 0] 0 0
r 1.283170620 _8_ AGT  --- 96 tcp 41 [13a 8 1 800] ------- [1:0 8:0 30 8] [53 0] 1 0
s 1.283170620 _8_ AGT  --- 168 ack 40 [0 0 0 0] ------- [8:0 1:0 32 0] [53 0] 0 0
r 1.283170620 _8_ RTR  --- 168 ack 40 [0 0 0 0] ------- [8:0 1:0 32 0] [53 0] 0 0
s 1.283170620 _8_ RTR  --- 168 ack 40 [0 0 0 0] ------- [8:0 1:0 30 1] [53 0] 0 0
r 1.285124792 _8_ AGT  --- 97 tcp 41 [13a 8 1 800] ------- [1:0 8:0 30 8] [54 0] 1 0
s 1.285124792 _8_ AGT  --- 169 ack 40 [0 0 0 0] ------- [8:0 1:0 32 0] [54 0] 0 0
r 1.285124792 _8_ RTR  --- 169 ack 40 [0 0 0 0] ------- [8:0 1:0 32 0] [54 0] 0 0
s 1.285124792 _8_ RTR  --- 169 ack 40 [0 0 0 0] ------- [8:0 1:0 30 1] [54 0] 0 0
r 1.287050421 _1_ AGT  --- 166 ack 40 [13a 1 8 800] ------- [8:0 1:0 30 1] [52 0] 1 0
s 1.287050421 _1_ AGT  --- 170 tcp 41 [0 0 0 0] ------- [1:0 8:0 32 0] [72 0] 0 0
r 1.287050421 _1_ RTR  --- 170 tcp 41 [0 0 0 0] ------- [1:0 8:0 32 0] [72 0] 0 0
s 1.287050421 _1_ RTR  --- 170 tcp 41 [0 0 0 0] ------- [1:0 8:0 30 8] [72 0] 0 0
r 1.288896593 _1_ AGT  --- 168 ack 40 [13a 1 8 800] ------- [8:0 1:0 30 1] [53 0] 1 0
s 1.288896593 _1_ AGT  --- 171 tcp 41 [0 0 0 0] ------- [1:0 8:0 32 0] [73 0] 0 0
r 1.288896593 _1_ RTR  --- 171 tcp 41 [0 0 0 0] ------- [1:0 8:0 32 0] [73 0] 0 0
s 1.288896593 _1_ RTR  --- 171 tcp 41 [0 0 0 0] ------- [1:0 8:0 30 8] [73 0] 0 0
r 1.290722765 _1_ AGT  --- 169 ack 40 [13a 1 8 800] ------- [8:0 1:0 30 1] [54 0] 1 0
s 1.290722765 _1_ AGT  --- 172 tcp 41 [0 0 0 0] ------- [1:0 8:0 32 0] [74 0] 0 0
r 1.290722765 _1_ RTR  --- 172 tcp 41 [0 0 0 0] ------- [1:0 8:0 32 0] [74 0] 0 0
s 1.290722765 _1_ RTR  --- 172 tcp 41 [0 0 0 0] ------- [1:0 8:0 30 8] [74 0] 0 0
r 1.292916394 _8_ AGT  --- 98 tcp 41 [13a 8 1 800] ------- [1:0 8:0 30 8] [55 0] 1 0
s 1.292916394 _8_ AGT  --- 173 ack 40 [0 0 0 0] ------- [8:0 1:0 32 0] [55 0] 0 0
r 1.292916394 _8_ RTR  --- 173 ack 40 [0 0 0 0] ------- [8:0 1:0 32 0] [55 0] 0 0
s 1.292916394 _8_ RTR  --- 173 ack 40 [0 0 0 0] ------- [8:0 1:0 30 1] [55 0] 0 0
r 1.295166597 _0_ AGT  --- 147 ack 40 [13a 0 9 800] ------- [9:0 0:0 30 0] [11 0] 1 0
s 1.295166597 _0_ AGT  --- 174 tcp 41 [0 0 0 0] ------- [0:0 9:0 32 0] [23 0] 0 0
r 1.295166597 _0_ RTR  --- 174 tcp 41 [0 0 0 0] ------- [0:0 9:0 32 0] [23 0] 0 0
s 1.295166597 _0_ AGT  --- 175 tcp 41 [0 0 0 0] ------- [0:0 9:0 32 0] [24 0] 0 0
r 1.295166597 _0_ RTR  --- 175 tcp 41 [0 0 0 0] ------- [0:0 9:0 32 0] [24 0] 0 0
s 1.295166597 _0_ RTR  --- 174 tcp 41 [0 0 0 0] ------- [0:0 9:0 30 9] [23 0] 0 0
s 1.295166597 _0_ RTR  --- 175 tcp 41 [0 0 0 0] ------- [0:0 9:0 30 9] [24 0] 0 0
r 1.297119232 _9_ AGT  --- 154 tcp 41 [13a 9 0 800] ------- [0:0 9:0 30 9] [17 0] 1 0
s 1.297119232 _9_ AGT  --- 176 ack 40 [0 0 0 0] ------- [9:0 0:0 32 0] [17 0] 0 0
r 1.297119232 _9_ RTR  --- 176 ack 40 [0 0 0 0] ------- [9:0 0:0 32 0] [17 0] 0 0
s 1.297119232 _9_ RTR  --- 176 ack 40 [0 0 0 0] ------- [9:0 0:0 30 0] [17 0] 0 0
r 1.299112079 _9_ AGT  --- 155 tcp 41 [13a 9 0 800] ------- [0:0 9:0 30 9] [18 0] 1 0
s 1.299112079 _9_ AGT  --- 177 ack 40 [0 0 0 0] ------- [9:0 0:0 32 0] [18 0] 0 0
r 1.299112079 _9_ RTR  --- 177 ack 40 [0 0 0 0] ------- [9:0 0:0 32 0] [18 0] 0 0
s 1.299112079 _9_ RTR  --- 177 ack 40 [0 0 0 0] ------- [9:0 0:0 30 0] [18 0] 0 0
r 1.301016714 _0_ AGT  --- 148 ack 40 [13a 0 9 800] ------- [9:0 0:0 30 0] [12 0] 1 0
s 1.301016714 _0_ AGT  --- 178 tcp 41 [0 0 0 0] ------- [0:0 9:0 32 0] [25 0] 0 0
r 1.301016714 _0_ RTR  --- 178 tcp 41 [0 0 0 0] ------- [0:0 9:0 32 0] [25 0] 0 0
s 1.301016714 _0_ AGT  --- 179 tcp 41 [0 0 0 0] ------- [0:0 9:0 32 0] [26 0] 0 0
r 1.301016714 _0_ RTR  --- 179 tcp 41 [0 0 0 0] ------- [0:0 9:0 32 0] [26 0] 0 0
s 1.301016714 _0_ RTR  --- 178 tcp 41 [0 0 0 0] ------- [0:0 9:0 30 9] [25 0] 0 0
s 1.301016714 _0_ RTR  --- 179 tcp 41 [0 0 0 0] ------- [0:0 9:0 30 9] [26 0] 0 0
r 1.302941561 _0_ AGT  --- 151 ack 40 [13a 0 9 800] ------- [9:0 0:0 30 0] [13 0] 1 0
s 1.302941561 _0_ AGT  --- 180 tcp 41 [0 0 0 0] ------- [0:0 9:0 32 0] [27 0] 0 0
r 1.302941561 _0_ RTR  --- 180 tcp 41 [0 0 0 0] ------- [0:0 9:0 32 0] [27 0] 0 0
s 1.302941561 _0_ AGT  --- 181 tcp 41 [0 0 0 0] ------- [0:0 9:0 32 0] [28 0] 0 0
r 1.302941561 _0_ RTR  --- 181 tcp 41 [0 0 0 0] ------- [0:0 9:0 32 0] [28 0] 0 0
s 1.302941561 _0_ RTR  --- 180 tcp 41 [0 0 0 0] ------- [0:0 9:0 30 9] [27 0] 0 0
s 1.302941561 _0_ RTR  --- 181 tcp 41 [0 0 0 0] ------- [0:0 9:0 30 9] [28 0] 0 0
r 1.304974196 _9_ AGT  --- 157 tcp 41 [13a 9 0 800] ------- [0:0 9:0 30 9] [19 0] 1 0
s 1.304974196 _9_ AGT  --- 182 ack 40 [0 0 0 0] ------- [9:0 0:0 32 0] [19 0] 0 0
r 1.304974196 _9_ RTR  --- 182 ack 40 [0 0 0 0] ------- [9:0 0:0 32 0] [19 0] 0 0
s 1.304974196 _9_ RTR  --- 182 ack 40 [0 0 0 0] ------- [9:0 0:0 30 0] [19 0] 0 0
r 1.306838831 _0_ AGT  --- 156 ack 40 [13a 0 9 800] ------- [9:0 0:0 30 0] [14 0] 1 0
s 1.306838831 _0_ AGT  --- 183 tcp 41 [0 0 0 0] ------- [0:0 9:0 32 0] [29 0] 0 0
r 1.306838831 _0_ RTR  --- 183 tcp 41 [0 0 0 0] ------- [0:0 9:0 32 0] [29 0] 0 0
s 1.306838831 _0_ AGT  --- 184 tcp 41 [0 0 0 0] ------- [0:0 9:0 32 0] [30 0] 0 0
r 1.306838831 _0_ RTR  --- 184 tcp 41 [0 0 0 0] ------- [0:0 9:0 32 0] [30 0] 0 0
s 1.306838831 _0_ RTR  --- 183 tcp 41 [0 0 0 0] ------- [0:0 9:0 30 9] [29 0] 0 0
s 1.306838831 _0_ RTR  --- 184 tcp 41 [0 0 0 0] ------- [0:0 9:0 30 9] [30 0] 0 0
r 1.308703678 _0_ AGT  --- 161 ack 40 [13a 0 9 800] ------- [9:0 0:0 30 0] [15 0] 1 0
s 1.308703678 _0_ AGT  --- 185 tcp 41 [0 0 0 0] ------- [0:0 9:0 32 0] [31 0] 0 0
r 1.308703678 _0_ RTR  --- 185 tcp 41 [0 0 0 0] ------- [0:0 9:0 32 0] [31 0] 0 0
s 1.308703678 _0_ AGT  --- 186 tcp 41 [0 0 0 0] ------- [0:0 9:0 32 0] [32 0] 0 0
r 1.308703678 _0_ RTR  --- 186 tcp 41 [0 0 0 0] ------- [0:0 9:0 32 0] [32 0] 0 0
s 1.308703678 _0_ RTR  --- 185 tcp 41 [0 0 0 0] ------- [0:0 9:0 30 9] [31 0] 0 0
s 1.308703678 _0_ RTR  --- 186 tcp 41 [0 0 0 0] ------- [0:0 9:0 30 9] [32 0] 0 0
r 1.310628525 _0_ AGT  --- 162 ack 40 [13a 0 9 800] ------- [9:0 0:0 30 0] [16 0] 1 0
s 1.310628525 _0_ AGT  --- 187 tcp 41 [0 0 0 0] ------- [0:0 9:0 32 0] [33 0] 0 0
r 1.310628525 _0_ RTR  --- 187 tcp 41 [0 0 0 0] ------- [0:0 9:0 32 0] [33 0] 0 0
s 1.310628525 _0_ AGT  --- 188 tcp 41 [0 0 0 0] ------- [0:0 9:0 32 0] [34 0] 0 0
r 1.310628525 _0_ RTR  --- 188 tcp 41 [0 0 0 0] ------- [0:0 9:0 32 0] [34 0] 0 0
s 1.310628525 _0_ RTR  --- 187 tcp 41 [0 0 0 0] ------- [0:0 9:0 30 9] [33 0] 0 0
s 1.310628525 _0_ RTR  --- 188 tcp 41 [0 0 0 0] ------- [0:0 9:0 30 9] [34 0] 0 0
r 1.312821160 _9_ AGT  --- 158 tcp 41 [13a 9 0 800] ------- [0:0 9:0 30 9] [20 0] 1 0
s 1.312821160 _9_ AGT  --- 189 ack 40 [0 0 0 0] ------- [9:0 0:0 32 0] [20 0] 0 0
r 1.312821160 _9_ RTR  --- 189 ack 40 [0 0 0 0] ------- [9:0 0:0 32 0] [20 0] 0 0
s 1.312821160 _9_ RTR  --- 189 ack 40 [0 0 0 0] ------- [9:0 0:0 30 0] [20 0] 0 0
r 1.314714006 _9_ AGT  --- 159 tcp 41 [13a 9 0 800] ------- [0:0 9:0 30 9] [21 0] 1 0
s 1.314714006 _9_ AGT  --- 190 ack 40 [0 0 0 0] ------- [9:0 0:0 32 0] [21 0] 0 0
r 1.314714006 _9_ RTR  --- 190 ack 40 [0 0 0 0] ------- [9:0 0:0 32 0] [21 0] 0 0
s 1.314714006 _9_ RTR  --- 190 ack 40 [0 0 0 0] ------- [9:0 0:0 30 0] [21 0] 0 0
r 1.316598642 _0_ AGT  --- 176 ack 40 [13a 0 9 800] ------- [9:0 0:0 30 0] [17 0] 1 0
s 1.316598642 _0_ AGT  --- 191 tcp 41 [0 0 0 0] ------- [0:0 9:0 32 0] [35 0] 0 0
r 1.316598642 _0_ RTR  --- 191 tcp 41 [0 0 0 0] ------- [0:0 9:0 32 0] [35 0] 0 0
s 1.316598642 _0_ AGT  --- 192 tcp 41 [0 0 0 0] ------- [0:0 9:0 32 0] [36 0] 0 0
r 1.316598642 _0_ RTR  --- 192 tcp 41 [0 0 0 0] ------- [0:0 9:0 32 0] [36 0] 0 0
s 1.316598642 _0_ RTR  --- 191 tcp 41 [0 0 0 0] ------- [0:0 9:0 30 9] [35 0] 0 0
s 1.316598642 _0_ RTR  --- 192 tcp 41 [0 0 0 0] ------- [0:0 9:0 30 9] [36 0] 0 0
r 1.318743488 _0_ AGT  --- 177 ack 40 [13a 0 9 800] ------- [9:0 0:0 30 0] [18 0] 1 0
s 1.318743488 _0_ AGT  --- 193 tcp 41 [0 0 0 0] ------- [0:0 9:0 32 0] [37 0] 0 0
r 1.318743488 _0_ RTR  --- 193 tcp 41 [0 0 0 0] ------- [0:0 9:0 32 0] [37 0] 0 0
s 1.318743488 _0_ AGT  --- 194 tcp 41 [0 0 0 0] ------- [0:0 9:0 32 0] [38 0] 0 0
r 1.318743488 _0_ RTR  --- 194 tcp 41 [0 0 0 0] ------- [0:0 9:0 32 0] [38 0] 0 0
s 1.318743488 _0_ RTR  --- 193 tcp 41 [0 0 0 0] ------- [0:0 9:0 30 9] [37 0] 0 0
s 1.318743488 _0_ RTR  --- 194 tcp 41 [0 0 0 0] ------- [0:0 9:0 30 9] [38 0] 0 0
r 1.320736123 _9_ AGT  --- 160 tcp 41 [13a 9 0 800] ------- [0:0 9:0 30 9] [22 0] 1 0
s 1.320736123 _9_ AGT  --- 195 ack 40 [0 0 0 0] ------- [9:0 0:0 32 0] [22 0] 0 0
r 1.320736123 _9_ RTR  --- 195 ack 40 [0 0 0 0] ------- [9:0 0:0 32 0] [22 0] 0 0
s 1.320736123 _9_ RTR  --- 195 ack 40 [0 0 0 0] ------- [9:0 0:0 30 0] [22 0] 0 0
r 1.322608970 _9_ AGT  --- 174 tcp 41 [13a 9 0 800] ------- [0:0 9:0 30 9] [23 0] 1 0
s 1.322608970 _9_ AGT  --- 196 ack 40 [0 0 0 0] ------- [9:0 0:0 32 0] [23 0] 0 0
r 1.322608970 _9_ RTR  --- 196 ack 40 [0 0 0 0] ------- [9:0 0:0 32 0] [23 0] 0 0
s 1.322608970 _9_ RTR  --- 196 ack 40 [0 0 0 0] ------- [9:0 0:0 30 0] [23 0] 0 0
r 1.324533605 _0_ AGT  --- 182 ack 40 [13a 0 9 800] ------- [9:0 0:0 30 0] [19 0] 1 0
s 1.324533605 _0_ AGT  --- 197 tcp 41 [0 0 0 0] ------- [0:0 9:0 32 0] [39 0] 0 0
r 1.324533605 _0_ RTR  --- 197 tcp 41 [0 0 0 0] ------- [0:0 9:0 32 0] [39 0] 0 0
s 1.324533605 _0_ RTR  --- 197 tcp 41 [0 0 0 0] ------- [0:0 9:0 30 9] [39 0] 0 0
r 1.326546240 _9_ AGT  --- 175 tcp 41 [13a 9 0 800] ------- [0:0 9:0 30 9] [24 0] 1 0
s 1.326546240 _9_ AGT  --- 198 ack 40 [0 0 0 0] ------- [9:0 0:0 32 0] [24 0] 0 0
r 1.326546240 _9_ RTR  --- 198 ack 40 [0 0 0 0] ------- [9:0 0:0 32 0] [24 0] 0 0
s 1.326546240 _9_ RTR  --- 198 ack 40 [0 0 0 0] ------- [9:0 0:0 30 0] [24 0] 0 0
r 1.328570875 _0_ AGT  --- 189 ack 40 [13a 0 9 800] ------- [9:0 0:0 30 0] [20 0] 1 0
s 1.328570875 _0_ AGT  --- 199 tcp 41 [0 0 0 0] ------- [0:0 9:0 32 0] [40 0] 0 0
r 1.328570875 _0_ RTR  --- 199 tcp 41 [0 0 0 0] ------- [0:0 9:0 32 0] [40 0] 0 0
s 1.328570875 _0_ RTR  --- 199 tcp 41 [0 0 0 0] ------- [0:0 9:0 30 9] [40 0] 0 0
r 1.330555722 _0_ AGT  --- 190 ack 40 [13a 0 9 800] ------- [9:0 0:0 30 0] [21 0] 1 0