n -t * -s 0  -x 363 -y 380 -Z 0 -z 25  -v circle -c black
n -t * -s 1  -x 269 -y 308 -Z 0 -z 25  -v circle -c black
n -t * -s 2  -x 961 -y 882 -Z 0 -z 25  -v circle -c black
n -t * -s 3  -x 293 -y 485 -Z 0 -z 25  -v circle -c black
n -t * -s 4  -x 255 -y 13 -Z 0 -z 25  -v circle -c black
n -t * -s 5  -x 622 -y 322 -Z 0 -z 25  -v circle -c black
n -t * -s 6  -x 672 -y 70 -Z 0 -z 25  -v circle -c black
n -t * -s 7  -x 159 -y 55 -Z 0 -z 25  -v circle -c black
n -t * -s 8  -x 268 -y 394 -Z 0 -z 25  -v circle -c black
n -t * -s 9  -x 376 -y 187 -Z 0 -z 25  -v circle -c black
V -t * -v 1.0a5 -a 0
W -t * -x 1000 -y 1000
A -t * -n 1 -p 0 -o 0x7fffffff -c 30 -a 1
A -t * -h 1 -m 1073741823 -s 0
n -t 1.000000 -s 0 -x 363.000000 -y 380.000000 -U 0.965948 -V 0.258736 -T 173.922396
n -t 1.000000 -s 1 -x 269.000000 -y 308.000000 -U -0.269957 -V 2.987829 -T 218.553324
n -t 1.000000 -s 2 -x 961.000000 -y 882.000000 -U -0.393124 -V -4.984521 -T 134.817358
n -t 1.000000 -s 3 -x 293.000000 -y 485.000000 -U 0.000000 -V 0.000000 -T 0.000000
n -t 1.000000 -s 4 -x 255.000000 -y 13.000000 -U 3.284473 -V 7.294672 -T 133.659198
n -t 1.000000 -s 5 -x 622.000000 -y 322.000000 -U 0.666268 -V 2.925079 -T 184.610401
n -t 1.000000 -s 6 -x 672.000000 -y 70.000000 -U 2.369350 -V 5.512366 -T 103.403874
n -t 1.000000 -s 7 -x 159.000000 -y 55.000000 -U 7.027149 -V 7.114715 -T 45.679974
n -t 1.000000 -s 8 -x 268.000000 -y 394.000000 -U 1.877927 -V 0.688034 -T 123.540479
n -t 1.000000 -s 9 -x 376.000000 -y 187.000000 -U -0.000000 -V 0.000000 -T 0.000000
+ -t 1.000000000 -s 0 -d -1 -p tcp -e 40 -c 2 -a 0 -i 0 -k AGT 
- -t 1.000000000 -s 0 -d -1 -p tcp -e 40 -c 2 -a 0 -i 0 -k AGT
h -t 1.000000000 -s 0 -d -1 -p tcp -e 40 -c 2 -a 0 -i 0 -k AGT
+ -t 1.000000000 -s 0 -d -1 -p AODV -e 48 -c 2 -a 0 -i 0 -k RTR 
- -t 1.000000000 -s 0 -d -1 -p AODV -e 48 -c 2 -a 0 -i 0 -k RTR
h -t 1.000000000 -s 0 -d -1 -p AODV -e 48 -c 2 -a 0 -i 0 -k RTR
r -t 1.000988320 -s 8 -d -1 -p AODV -e 48 -c 2 -a 0 -i 0 -k RTR
r -t 1.000988395 -s 1 -d -1 -p AODV -e 48 -c 2 -a 0 -i 0 -k RTR
r -t 1.000988421 -s 3 -d -1 -p AODV -e 48 -c 2 -a 0 -i 0 -k RTR
r -t 1.000988645 -s 9 -d -1 -p AODV -e 48 -c 2 -a 0 -i 0 -k RTR
+ -t 1.001869547 -s 8 -d -1 -p AODV -e 48 -c 2 -a 0 -i 0 -k RTR 
- -t 1.001869547 -s 8 -d -1 -p AODV -e 48 -c 2 -a 0 -i 0 -k RTR
h -t 1.001869547 -s 8 -d -1 -p AODV -e 48 -c 2 -a 0 -i 0 -k RTR
r -t 1.003017833 -s 1 -d -1 -p AODV -e 48 -c 2 -a 0 -i 0 -k RTR
r -t 1.003017861 -s 3 -d -1 -p AODV -e 48 -c 2 -a 0 -i 0 -k RTR
r -t 1.003017867 -s 0 -d -1 -p AODV -e 48 -c 2 -a 0 -i 0 -k RTR
r -t 1.003018325 -s 9 -d -1 -p AODV -e 48 -c 2 -a 0 -i 0 -k RTR
+ -t 1.004118263 -s 9 -d -1 -p AODV -e 48 -c 2 -a 0 -i 0 -k RTR 
- -t 1.004118263 -s 9 -d -1 -p AODV -e 48 -c 2 -a 0 -i 0 -k RTR
h -t 1.004118263 -s 9 -d -1 -p AODV -e 48 -c 2 -a 0 -i 0 -k RTR
+ -t 1.005400129 -s 1 -d -1 -p AODV -e 48 -c 2 -a 0 -i 0 -k RTR 
- -t 1.005400129 -s 1 -d -1 -p AODV -e 48 -c 2 -a 0 -i 0 -k RTR
h -t 1.005400129 -s 1 -d -1 -p AODV -e 48 -c 2 -a 0 -i 0 -k RTR
r -t 1.005426801 -s 1 -d -1 -p AODV -e 48 -c 2 -a 0 -i 0 -k RTR
r -t 1.005426907 -s 0 -d -1 -p AODV -e 48 -c 2 -a 0 -i 0 -k RTR
r -t 1.005426969 -s 4 -d -1 -p AODV -e 48 -c 2 -a 0 -i 0 -k RTR
+ -t 1.005426969 -s 4 -d 9 -p AODV -e 44 -c 2 -a 0 -i 0 -k RTR 
- -t 1.005426969 -s 4 -d 9 -p AODV -e 44 -c 2 -a 0 -i 0 -k RTR
h -t 1.005426969 -s 4 -d 9 -p AODV -e 44 -c 2 -a 0 -i 0 -k RTR
r -t 1.005427041 -s 8 -d -1 -p AODV -e 48 -c 2 -a 0 -i 0 -k RTR
+ -t 1.008979975 -s 3 -d -1 -p AODV -e 48 -c 2 -a 0 -i 0 -k RTR 
- -t 1.008979975 -s 3 -d -1 -p AODV -e 48 -c 2 -a 0 -i 0 -k RTR
h -t 1.008979975 -s 3 -d -1 -p AODV -e 48 -c 2 -a 0 -i 0 -k RTR
+ -t 1.010049913 -s 9 -d 0 -p AODV -e 44 -c 2 -a 0 -i 0 -k RTR 
- -t 1.010049913 -s 9 -d 0 -p AODV -e 44 -c 2 -a 0 -i 0 -k RTR
h -t 1.010049913 -s 9 -d 0 -p AODV -e 44 -c 2 -a 0 -i 0 -k RTR
r -t 1.012260738 -s 8 -d -1 -p AODV -e 48 -c 2 -a 0 -i 0 -k RTR
r -t 1.012260846 -s 0 -d -1 -p AODV -e 48 -c 2 -a 0 -i 0 -k RTR
r -t 1.012260990 -s 9 -d -1 -p AODV -e 48 -c 2 -a 0 -i 0 -k RTR
r -t 1.012261046 -s 3 -d -1 -p AODV -e 48 -c 2 -a 0 -i 0 -k RTR
+ -t 1.015994715 -s 0 -d 9 -p tcp -e 40 -c 2 -a 0 -i 0 -k RTR 
- -t 1.015994715 -s 0 -d 9 -p tcp -e 40 -c 2 -a 0 -i 0 -k RTR
h -t 1.015994715 -s 0 -d 9 -p tcp -e 40 -c 2 -a 0 -i 0 -k RTR
r -t 1.017277415 -s 8 -d -1 -p AODV -e 48 -c 2 -a 0 -i 0 -k RTR
r -t 1.017277522 -s 0 -d -1 -p AODV -e 48 -c 2 -a 0 -i 0 -k RTR
r -t 1.017277696 -s 1 -d -1 -p AODV -e 48 -c 2 -a 0 -i 0 -k RTR
+ -t 1.018809456 -s 9 -d 4 -p tcp -e 40 -c 2 -a 0 -i 0 -k RTR 
- -t 1.018809456 -s 9 -d 4 -p tcp -e 40 -c 2 -a 0 -i 0 -k RTR
h -t 1.018809456 -s 9 -d 4 -p tcp -e 40 -c 2 -a 0 -i 0 -k RTR
r -t 1.020795574 -s 4 -d 4 -p tcp -e 40 -c 2 -a 0 -i 0 -k AGT
+ -t 1.020795574 -s 4 -d -1 -p ack -e 40 -c 2 -a 0 -i 1 -k AGT 
- -t 1.020795574 -s 4 -d -1 -p ack -e 40 -c 2 -a 0 -i 1 -k AGT
h -t 1.020795574 -s 4 -d -1 -p ack -e 40 -c 2 -a 0 -i 1 -k AGT
+ -t 1.020795574 -s 4 -d 9 -p ack -e 40 -c 2 -a 0 -i 1 -k RTR 
- -t 1.020795574 -s 4 -d 9 -p ack -e 40 -c 2 -a 0 -i 1 -k RTR
h -t 1.020795574 -s 4 -d 9 -p ack -e 40 -c 2 -a 0 -i 1 -k RTR
+ -t 1.023061691 -s 9 -d 0 -p ack -e 40 -c 2 -a 0 -i 1 -k RTR 
- -t 1.023061691 -s 9 -d 0 -p ack -e 40 -c 2 -a 0 -i 1 -k RTR
h -t 1.023061691 -s 9 -d 0 -p ack -e 40 -c 2 -a 0 -i 1 -k RTR
r -t 1.025467626 -s 0 -d 0 -p ack -e 40 -c 2 -a 0 -i 1 -k AGT
+ -t 1.025467626 -s 0 -d -1 -p tcp -e 1540 -c 2 -a 0 -i 2 -k AGT 
- -t 1.025467626 -s 0 -d -1 -p tcp -e 1540 -c 2 -a 0 -i 2 -k AGT
h -t 1.025467626 -s 0 -d -1 -p tcp -e 1540 -c 2 -a 0 -i 2 -k AGT
+ -t 1.025467626 -s 0 -d -1 -p tcp -e 1540 -c 2 -a 0 -i 3 -k AGT 
- -t 1.025467626 -s 0 -d -1 -p tcp -e 1540 -c 2 -a 0 -i 3 -k AGT
h -t 1.025467626 -s 0 -d -1 -p tcp -e 1540 -c 2 -a 0 -i 3 -k AGT
+ -t 1.025467626 -s 0 -d 9 -p tcp -e 1540 -c 2 -a 0 -i 2 -k RTR 
- -t 1.025467626 -s 0 -d 9 -p tcp -e 1540 -c 2 -a 0 -i 2 -k RTR
h -t 1.025467626 -s 0 -d 9 -p tcp -e 1540 -c 2 -a 0 -i 2 -k RTR
+ -t 1.025467626 -s 0 -d 9 -p tcp -e 1540 -c 2 -a 0 -i 3 -k RTR 
- -t 1.025467626 -s 0 -d 9 -p tcp -e 1540 -c 2 -a 0 -i 3 -k RTR
h -t 1.025467626 -s 0 -d 9 -p tcp -e 1540 -c 2 -a 0 -i 3 -k RTR
+ -t 1.039833560 -s 9 -d 4 -p tcp -e 1540 -c 2 -a 0 -i 2 -k RTR 
- -t 1.039833560 -s 9 -d 4 -p tcp -e 1540 -c 2 -a 0 -i 2 -k RTR
h -t 1.039833560 -s 9 -d 4 -p tcp -e 1540 -c 2 -a 0 -i 2 -k RTR
r -t 1.053699676 -s 4 -d 4 -p tcp -e 1540 -c 2 -a 0 -i 2 -k AGT
+ -t 1.053699676 -s 4 -d -1 -p ack -e 40 -c 2 -a 0 -i 4 -k AGT 
- -t 1.053699676 -s 4 -d -1 -p ack -e 40 -c 2 -a 0 -i 4 -k AGT
h -t 1.053699676 -s 4 -d -1 -p ack -e 40 -c 2 -a 0 -i 4 -k AGT
+ -t 1.053699676 -s 4 -d 9 -p ack -e 40 -c 2 -a 0 -i 4 -k RTR 
- -t 1.053699676 -s 4 -d 9 -p ack -e 40 -c 2 -a 0 -i 4 -k RTR
h -t 1.053699676 -s 4 -d 9 -p ack -e 40 -c 2 -a 0 -i 4 -k RTR
+ -t 1.055885792 -s 9 -d 0 -p ack -e 40 -c 2 -a 0 -i 4 -k RTR 
- -t 1.055885792 -s 9 -d 0 -p ack -e 40 -c 2 -a 0 -i 4 -k RTR
h -t 1.055885792 -s 9 -d 0 -p ack -e 40 -c 2 -a 0 -i 4 -k RTR
r -t 1.057791726 -s 0 -d 0 -p ack -e 40 -c 2 -a 0 -i 4 -k AGT
+ -t 1.057791726 -s 0 -d -1 -p tcp -e 1540 -c 2 -a 0 -i 5 -k AGT 
- -t 1.057791726 -s 0 -d -1 -p tcp -e 1540 -c 2 -a 0 -i 5 -k AGT
h -t 1.057791726 -s 0 -d -1 -p tcp -e 1540 -c 2 -a 0 -i 5 -k AGT
+ -t 1.057791726 -s 0 -d -1 -p tcp -e 1540 -c 2 -a 0 -i 6 -k AGT 
- -t 1.057791726 -s 0 -d -1 -p tcp -e 1540 -c 2 -a 0 -i 6 -k AGT
h -t 1.057791726 -s 0 -d -1 -p tcp -e 1540 -c 2 -a 0 -i 6 -k AGT
+ -t 1.057791726 -s 0 -d 9 -p tcp -e 1540 -c 2 -a 0 -i 5 -k RTR 
- -t 1.057791726 -s 0 -d 9 -p tcp -e 1540 -c 2 -a 0 -i 5 -k RTR
h -t 1.057791726 -s 0 -d 9 -p tcp -e 1540 -c 2 -a 0 -i 5 -k RTR
+ -t 1.057791726 -s 0 -d 9 -p tcp -e 1540 -c 2 -a 0 -i 6 -k RTR 
- -t 1.057791726 -s 0 -d 9 -p tcp -e 1540 -c 2 -a 0 -i 6 -k RTR
h -t 1.057791726 -s 0 -d 9 -p tcp -e 1540 -c 2 -a 0 -i 6 -k RTR
+ -t 1.071857661 -s 9 -d 4 -p tcp -e 1540 -c 2 -a 0 -i 3 -k RTR 
- -t 1.071857661 -s 9 -d 4 -p tcp -e 1540 -c 2 -a 0 -i 3 -k RTR
h -t 1.071857661 -s 9 -d 4 -p tcp -e 1540 -c 2 -a 0 -i 3 -k RTR
r -t 1.085783774 -s 4 -d 4 -p tcp -e 1540 -c 2 -a 0 -i 3 -k AGT
+ -t 1.085783774 -s 4 -d -1 -p ack -e 40 -c 2 -a 0 -i 7 -k AGT 
- -t 1.085783774 -s 4 -d -1 -p ack -e 40 -c 2 -a 0 -i 7 -k AGT
h -t 1.085783774 -s 4 -d -1 -p ack -e 40 -c 2 -a 0 -i 7 -k AGT
+ -t 1.085783774 -s 4 -d 9 -p ack -e 40 -c 2 -a 0 -i 7 -k RTR 
- -t 1.085783774 -s 4 -d 9 -p ack -e 40 -c 2 -a 0 -i 7 -k RTR
h -t 1.085783774 -s 4 -d 9 -p ack -e 40 -c 2 -a 0 -i 7 -k RTR
+ -t 1.087789887 -s 9 -d 0 -p ack -e 40 -c 2 -a 0 -i 7 -k RTR 
- -t 1.087789887 -s 9 -d 0 -p ack -e 40 -c 2 -a 0 -i 7 -k RTR
h -t 1.087789887 -s 9 -d 0 -p ack -e 40 -c 2 -a 0 -i 7 -k RTR
r -t 1.089675821 -s 0 -d 0 -p ack -e 40 -c 2 -a 0 -i 7 -k AGT
+ -t 1.089675821 -s 0 -d -1 -p tcp -e 1540 -c 2 -a 0 -i 8 -k AGT 
- -t 1.089675821 -s 0 -d -1 -p tcp -e 1540 -c 2 -a 0 -i 8 -k AGT
h -t 1.089675821 -s 0 -d -1 -p tcp -e 1540 -c 2 -a 0 -i 8 -k AGT
+ -t 1.089675821 -s 0 -d -1 -p tcp -e 1540 -c 2 -a 0 -i 9 -k AGT 
- -t 1.089675821 -s 0 -d -1 -p tcp -e 1540 -c 2 -a 0 -i 9 -k AGT
h -t 1.089675821 -s 0 -d -1 -p tcp -e 1540 -c 2 -a 0 -i 9 -k AGT
+ -t 1.089675821 -s 0 -d 9 -p tcp -e 1540 -c 2 -a 0 -i 8 -k RTR 
- -t 1.089675821 -s 0 -d 9 -p tcp -e 1540 -c 2 -a 0 -i 8 -k RTR
h -t 1.089675821 -s 0 -d 9 -p tcp -e 1540 -c 2 -a 0 -i 8 -k RTR
+ -t 1.089675821 -s 0 -d 9 -p tcp -e 1540 -c 2 -a 0 -i 9 -k RTR 
- -t 1.089675821 -s 0 -d 9 -p tcp -e 1540 -c 2 -a 0 -i 9 -k RTR
h -t 1.089675821 -s 0 -d 9 -p tcp -e 1540 -c 2 -a 0 -i 9 -k RTR
+ -t 1.103921756 -s 9 -d 4 -p tcp -e 1540 -c 2 -a 0 -i 5 -k RTR 
- -t 1.103921756 -s 9 -d 4 -p tcp -e 1540 -c 2 -a 0 -i 5 -k RTR
h -t 1.103921756 -s 9 -d 4 -p tcp -e 1540 -c 2 -a 0 -i 5 -k RTR
+ -t 1.117808335 -s 9 -d 4 -p tcp -e 1540 -c 2 -a 0 -i 6 -k RTR 
- -t 1.117808335 -s 9 -d 4 -p tcp -e 1540 -c 2 -a 0 -i 6 -k RTR
h -t 1.117808335 -s 9 -d 4 -p tcp -e 1540 -c 2 -a 0 -i 6 -k RTR
r -t 1.131734445 -s 4 -d 4 -p tcp -e 1540 -c 2 -a 0 -i 5 -k AGT
+ -t 1.131734445 -s 4 -d -1 -p ack -e 40 -c 2 -a 0 -i 10 -k AGT 
- -t 1.131734445 -s 4 -d -1 -p ack -e 40 -c 2 -a 0 -i 10 -k AGT
h -t 1.131734445 -s 4 -d -1 -p ack -e 40 -c 2 -a 0 -i 10 -k AGT
+ -t 1.131734445 -s 4 -d 9 -p ack -e 40 -c 2 -a 0 -i 10 -k RTR 
- -t 1.131734445 -s 4 -d 9 -p ack -e 40 -c 2 -a 0 -i 10 -k RTR
h -t 1.131734445 -s 4 -d 9 -p ack -e 40 -c 2 -a 0 -i 10 -k RTR
+ -t 1.133640554 -s 9 -d 0 -p ack -e 40 -c 2 -a 0 -i 10 -k RTR 
- -t 1.133640554 -s 9 -d 0 -p ack -e 40 -c 2 -a 0 -i 10 -k RTR
h -t 1.133640554 -s 9 -d 0 -p ack -e 40 -c 2 -a 0 -i 10 -k RTR
+ -t 1.147537058 -s 9 -d 4 -p tcp -e 1540 -c 2 -a 0 -i 8 -k RTR 
- -t 1.147537058 -s 9 -d 4 -p tcp -e 1540 -c 2 -a 0 -i 8 -k RTR
h -t 1.147537058 -s 9 -d 4 -p tcp -e 1540 -c 2 -a 0 -i 8 -k RTR
r -t 1.161583166 -s 4 -d 4 -p tcp -e 1540 -c 2 -a 0 -i 6 -k AGT
+ -t 1.161583166 -s 4 -d -1 -p ack -e 40 -c 2 -a 0 -i 11 -k AGT 
- -t 1.161583166 -s 4 -d -1 -p ack -e 40 -c 2 -a 0 -i 11 -k AGT
h -t 1.161583166 -s 4 -d -1 -p ack -e 40 -c 2 -a 0 -i 11 -k AGT
+ -t 1.161583166 -s 4 -d 9 -p ack -e 40 -c 2 -a 0 -i 11 -k RTR 
- -t 1.161583166 -s 4 -d 9 -p ack -e 40 -c 2 -a 0 -i 11 -k RTR
h -t 1.161583166 -s 4 -d 9 -p ack -e 40 -c 2 -a 0 -i 11 -k RTR
r -t 1.163589802 -s 0 -d 0 -p ack -e 40 -c 2 -a 0 -i 10 -k AGT
+ -t 1.163589802 -s 0 -d -1 -p tcp -e 1540 -c 2 -a 0 -i 12 -k AGT 
- -t 1.163589802 -s 0 -d -1 -p tcp -e 1540 -c 2 -a 0 -i 12 -k AGT
h -t 1.163589802 -s 0 -d -1 -p tcp -e 1540 -c 2 -a 0 -i 12 -k AGT
+ -t 1.163589802 -s 0 -d -1 -p tcp -e 1540 -c 2 -a 0 -i 13 -k AGT 
- -t 1.163589802 -s 0 -d -1 -p tcp -e 1540 -c 2 -a 0 -i 13 -k AGT
h -t 1.163589802 -s 0 -d -1 -p tcp -e 1540 -c 2 -a 0 -i 13 -k AGT
+ -t 1.163589802 -s 0 -d 9 -p tcp -e 1540 -c 2 -a 0 -i 12 -k RTR 
- -t 1.163589802 -s 0 -d 9 -p tcp -e 1540 -c 2 -a 0 -i 12 -k RTR
h -t 1.163589802 -s 0 -d 9 -p tcp -e 1540 -c 2 -a 0 -i 12 -k RTR
+ -t 1.163589802 -s 0 -d 9 -p tcp -e 1540 -c 2 -a 0 -i 13 -k RTR 
- -t 1.163589802 -s 0 -d 9 -p tcp -e 1540 -c 2 -a 0 -i 13 -k RTR
h -t 1.163589802 -s 0 -d 9 -p tcp -e 1540 -c 2 -a 0 -i 13 -k RTR
+ -t 1.177475737 -s 9 -d 4 -p tcp -e 1540 -c 2 -a 0 -i 9 -k RTR 
- -t 1.177475737 -s 9 -d 4 -p tcp -e 1540 -c 2 -a 0 -i 9 -k RTR
h -t 1.177475737 -s 9 -d 4 -p tcp -e 1540 -c 2 -a 0 -i 9 -k RTR
+ -t 1.179452469 -s 9 -d 0 -p ack -e 40 -c 2 -a 0 -i 11 -k RTR 
- -t 1.179452469 -s 9 -d 0 -p ack -e 40 -c 2 -a 0 -i 11 -k RTR
h -t 1.179452469 -s 9 -d 0 -p ack -e 40 -c 2 -a 0 -i 11 -k RTR
r -t 1.193358574 -s 4 -d 4 -p tcp -e 1540 -c 2 -a 0 -i 8 -k AGT
+ -t 1.193358574 -s 4 -d -1 -p ack -e 40 -c 2 -a 0 -i 14 -k AGT 
- -t 1.193358574 -s 4 -d -1 -p ack -e 40 -c 2 -a 0 -i 14 -k AGT
h -t 1.193358574 -s 4 -d -1 -p ack -e 40 -c 2 -a 0 -i 14 -k AGT
+ -t 1.193358574 -s 4 -d 9 -p ack -e 40 -c 2 -a 0 -i 14 -k RTR 
- -t 1.193358574 -s 4 -d 9 -p ack -e 40 -c 2 -a 0 -i 14 -k RTR
h -t 1.193358574 -s 4 -d 9 -p ack -e 40 -c 2 -a 0 -i 14 -k RTR
+ -t 1.195404678 -s 9 -d 0 -p ack -e 40 -c 2 -a 0 -i 14 -k RTR 
- -t 1.195404678 -s 9 -d 0 -p ack -e 40 -c 2 -a 0 -i 14 -k RTR
h -t 1.195404678 -s 9 -d 0 -p ack -e 40 -c 2 -a 0 -i 14 -k RTR
r -t 1.209350782 -s 4 -d 4 -p tcp -e 1540 -c 2 -a 0 -i 9 -k AGT
+ -t 1.209350782 -s 4 -d -1 -p ack -e 40 -c 2 -a 0 -i 15 -k AGT 
- -t 1.209350782 -s 4 -d -1 -p ack -e 40 -c 2 -a 0 -i 15 -k AGT
h -t 1.209350782 -s 4 -d -1 -p ack -e 40 -c 2 -a 0 -i 15 -k AGT
+ -t 1.209350782 -s 4 -d 9 -p ack -e 40 -c 2 -a 0 -i 15 -k RTR 
- -t 1.209350782 -s 4 -d 9 -p ack -e 40 -c 2 -a 0 -i 15 -k RTR
h -t 1.209350782 -s 4 -d 9 -p ack -e 40 -c 2 -a 0 -i 15 -k RTR
+ -t 1.211236885 -s 9 -d 0 -p ack -e 40 -c 2 -a 0 -i 15 -k RTR 
- -t 1.211236885 -s 9 -d 0 -p ack -e 40 -c 2 -a 0 -i 15 -k RTR
h -t 1.211236885 -s 9 -d 0 -p ack -e 40 -c 2 -a 0 -i 15 -k RTR
r -t 1.213242820 -s 0 -d 0 -p ack -e 40 -c 2 -a 0 -i 11 -k AGT
+ -t 1.213242820 -s 0 -d -1 -p tcp -e 1540 -c 2 -a 0 -i 16 -k AGT 
- -t 1.213242820 -s 0 -d -1 -p tcp -e 1540 -c 2 -a 0 -i 16 -k AGT
h -t 1.213242820 -s 0 -d -1 -p tcp -e 1540 -c 2 -a 0 -i 16 -k AGT
+ -t 1.213242820 -s 0 -d -1 -p tcp -e 1540 -c 2 -a 0 -i 17 -k AGT 
- -t 1.213242820 -s 0 -d -1 -p tcp -e 1540 -c 2 -a 0 -i 17 -k AGT
h -t 1.213242820 -s 0 -d -1 -p tcp -e 1540 -c 2 -a 0 -i 17 -k AGT
+ -t 1.213242820 -s 0 -d 9 -p tcp -e 1540 -c 2 -a 0 -i 16 -k RTR 
- -t 1.213242820 -s 0 -d 9 -p tcp -e 1540 -c 2 -a 0 -i 16 -k RTR
h -t 1.213242820 -s 0 -d 9 -p tcp -e 1540 -c 2 -a 0 -i 16 -k RTR
+ -t 1.213242820 -s 0 -d 9 -p tcp -e 1540 -c 2 -a 0 -i 17 -k RTR 
- -t 1.213242820 -s 0 -d 9 -p tcp -e 1540 -c 2 -a 0 -i 17 -k RTR
h -t 1.213242820 -s 0 -d 9 -p tcp -e 1540 -c 2 -a 0 -i 17 -k RTR
+ -t 1.227208754 -s 9 -d 4 -p tcp -e 1540 -c 2 -a 0 -i 12 -k RTR 
- -t 1.227208754 -s 9 -d 4 -p tcp -e 1540 -c 2 -a 0 -i 12 -k RTR
h -t 1.227208754 -s 9 -d 4 -p tcp -e 1540 -c 2 -a 0 -i 12 -k RTR
+ -t 1.241035334 -s 9 -d 4 -p tcp -e 1540 -c 2 -a 0 -i 13 -k RTR 
- -t 1.241035334 -s 9 -d 4 -p tcp -e 1540 -c 2 -a 0 -i 13 -k RTR
h -t 1.241035334 -s 9 -d 4 -p tcp -e 1540 -c 2 -a 0 -i 13 -k RTR
r -t 1.243021269 -s 0 -d 0 -p ack -e 40 -c 2 -a 0 -i 14 -k AGT
+ -t 1.243021269 -s 0 -d -1 -p tcp -e 1540 -c 2 -a 0 -i 18 -k AGT 
- -t 1.243021269 -s 0 -d -1 -p tcp -e 1540 -c 2 -a 0 -i 18 -k AGT
h -t 1.243021269 -s 0 -d -1 -p tcp -e 1540 -c 2 -a 0 -i 18 -k AGT
+ -t 1.243021269 -s 0 -d -1 -p tcp -e 1540 -c 2 -a 0 -i 19 -k AGT 
- -t 1.243021269 -s 0 -d -1 -p tcp -e 1540 -c 2 -a 0 -i 19 -k AGT
h -t 1.243021269 -s 0 -d -1 -p tcp -e 1540 -c 2 -a 0 -i 19 -k AGT
+ -t 1.243021269 -s 0 -d 9 -p tcp -e 1540 -c 2 -a 0 -i 18 -k RTR 
- -t 1.243021269 -s 0 -d 9 -p tcp -e 1540 -c 2 -a 0 -i 18 -k RTR
h -t 1.243021269 -s 0 -d 9 -p tcp -e 1540 -c 2 -a 0 -i 18 -k RTR
+ -t 1.243021269 -s 0 -d 9 -p tcp -e 1540 -c 2 -a 0 -i 19 -k RTR 
- -t 1.243021269 -s 0 -d 9 -p tcp -e 1540 -c 2 -a 0 -i 19 -k RTR
h -t 1.243021269 -s 0 -d 9 -p tcp -e 1540 -c 2 -a 0 -i 19 -k RTR
+ -t 1.256927204 -s 9 -d 4 -p tcp -e 1540 -c 2 -a 0 -i 16 -k RTR 
- -t 1.256927204 -s 9 -d 4 -p tcp -e 1540 -c 2 -a 0 -i 16 -k RTR
h -t 1.256927204 -s 9 -d 4 -p tcp -e 1540 -c 2 -a 0 -i 16 -k RTR
r -t 1.258973139 -s 0 -d 0 -p ack -e 40 -c 2 -a 0 -i 15 -k AGT
+ -t 1.258973139 -s 0 -d -1 -p tcp -e 1540 -c 2 -a 0 -i 20 -k AGT 
- -t 1.258973139 -s 0 -d -1 -p tcp -e 1540 -c 2 -a 0 -i 20 -k AGT
h -t 1.258973139 -s 0 -d -1 -p tcp -e 1540 -c 2 -a 0 -i 20 -k AGT
+ -t 1.258973139 -s 0 -d -1 -p tcp -e 1540 -c 2 -a 0 -i 21 -k AGT 
- -t 1.258973139 -s 0 -d -1 -p tcp -e 1540 -c 2 -a 0 -i 21 -k AGT
h -t 1.258973139 -s 0 -d -1 -p tcp -e 1540 -c 2 -a 0 -i 21 -k AGT
+ -t 1.258973139 -s 0 -d 9 -p tcp -e 1540 -c 2 -a 0 -i 20 -k RTR 
- -t 1.258973139 -s 0 -d 9 -p tcp -e 1540 -c 2 -a 0 -i 20 -k RTR
h -t 1.258973139 -s 0 -d 9 -p tcp -e 1540 -c 2 -a 0 -i 20 -k RTR
+ -t 1.258973139 -s 0 -d 9 -p tcp -e 1540 -c 2 -a 0 -i 21 -k RTR 
- -t 1.258973139 -s 0 -d 9 -p tcp -e 1540 -c 2 -a 0 -i 21 -k RTR
h -t 1.258973139 -s 0 -d 9 -p tcp -e 1540 -c 2 -a 0 -i 21 -k RTR
r -t 1.272819883 -s 4 -d 4 -p tcp -e 1540 -c 2 -a 0 -i 12 -k AGT
+ -t 1.272819883 -s 4 -d -1 -p ack -e 40 -c 2 -a 0 -i 22 -k AGT 
- -t 1.272819883 -s 4 -d -1 -p ack -e 40 -c 2 -a 0 -i 22 -k AGT
h -t 1.272819883 -s 4 -d -1 -p ack -e 40 -c 2 -a 0 -i 22 -k AGT
+ -t 1.272819883 -s 4 -d 9 -p ack -e 40 -c 2 -a 0 -i 22 -k RTR 
- -t 1.272819883 -s 4 -d 9 -p ack -e 40 -c 2 -a 0 -i 22 -k RTR
h -t 1.272819883 -s 4 -d 9 -p ack -e 40 -c 2 -a 0 -i 22 -k RTR
r -t 1.286886680 -s 4 -d 4 -p tcp -e 1540 -c 2 -a 0 -i 13 -k AGT
+ -t 1.286886680 -s 4 -d -1 -p ack -e 40 -c 2 -a 0 -i 23 -k AGT 
- -t 1.286886680 -s 4 -d -1 -p ack -e 40 -c 2 -a 0 -i 23 -k AGT
h -t 1.286886680 -s 4 -d -1 -p ack -e 40 -c 2 -a 0 -i 23 -k AGT
+ -t 1.286886680 -s 4 -d 9 -p ack -e 40 -c 2 -a 0 -i 23 -k RTR 
- -t 1.286886680 -s 4 -d 9 -p ack -e 40 -c 2 -a 0 -i 23 -k RTR
h -t 1.286886680 -s 4 -d 9 -p ack -e 40 -c 2 -a 0 -i 23 -k RTR
r -t 1.300833475 -s 4 -d 4 -p tcp -e 1540 -c 2 -a 0 -i 16 -k AGT
+ -t 1.300833475 -s 4 -d -1 -p ack -e 40 -c 2 -a 0 -i 24 -k AGT 
- -t 1.300833475 -s 4 -d -1 -p ack -e 40 -c 2 -a 0 -i 24 -k AGT
h -t 1.300833475 -s 4 -d -1 -p ack -e 40 -c 2 -a 0 -i 24 -k AGT
+ -t 1.300833475 -s 4 -d 9 -p ack -e 40 -c 2 -a 0 -i 24 -k RTR 
- -t 1.300833475 -s 4 -d 9 -p ack -e 40 -c 2 -a 0 -i 24 -k RTR
h -t 1.300833475 -s 4 -d 9 -p ack -e 40 -c 2 -a 0 -i 24 -k RTR
+ -t 1.302779571 -s 9 -d 0 -p ack -e 40 -c 2 -a 0 -i 22 -k RTR 
- -t 1.302779571 -s 9 -d 0 -p ack -e 40 -c 2 -a 0 -i 22 -k RTR
h -t 1.302779571 -s 9 -d 0 -p ack -e 40 -c 2 -a 0 -i 22 -k RTR
+ -t 1.304646365 -s 9 -d 0 -p ack -e 40 -c 2 -a 0 -i 23 -k RTR 
- -t 1.304646365 -s 9 -d 0 -p ack -e 40 -c 2 -a 0 -i 23 -k RTR
h -t 1.304646365 -s 9 -d 0 -p ack -e 40 -c 2 -a 0 -i 23 -k RTR
+ -t 1.318562869 -s 9 -d 4 -p tcp -e 1540 -c 2 -a 0 -i 17 -k RTR 
- -t 1.318562869 -s 9 -d 4 -p tcp -e 1540 -c 2 -a 0 -i 17 -k RTR
h -t 1.318562869 -s 9 -d 4 -p tcp -e 1540 -c 2 -a 0 -i 17 -k RTR
r -t 1.320468804 -s 0 -d 0 -p ack -e 40 -c 2 -a 0 -i 22 -k AGT
+ -t 1.320468804 -s 0 -d -1 -p tcp -e 1540 -c 2 -a 0 -i 25 -k AGT 
- -t 1.320468804 -s 0 -d -1 -p tcp -e 1540 -c 2 -a 0 -i 25 -k AGT
h -t 1.320468804 -s 0 -d -1 -p tcp -e 1540 -c 2 -a 0 -i 25 -k AGT
+ -t 1.320468804 -s 0 -d -1 -p tcp -e 1540 -c 2 -a 0 -i 26 -k AGT 
- -t 1.320468804 -s 0 -d -1 -p tcp -e 1540 -c 2 -a 0 -i 26 -k AGT
h -t 1.320468804 -s 0 -d -1 -p tcp -e 1540 -c 2 -a 0 -i 26 -k AGT
+ -t 1.320468804 -s 0 -d 9 -p tcp -e 1540 -c 2 -a 0 -i 25 -k RTR 
- -t 1.320468804 -s 0 -d 9 -p tcp -e 1540 -c 2 -a 0 -i 25 -k RTR
h -t 1.320468804 -s 0 -d 9 -p tcp -e 1540 -c 2 -a 0 -i 25 -k RTR
+ -t 1.320468804 -s 0 -d 9 -p tcp -e 1540 -c 2 -a 0 -i 26 -k RTR 
- -t 1.320468804 -s 0 -d 9 -p tcp -e 1540 -c 2 -a 0 -i 26 -k RTR
h -t 1.320468804 -s 0 -d 9 -p tcp -e 1540 -c 2 -a 0 -i 26 -k RTR
+ -t 1.334334739 -s 9 -d 4 -p tcp -e 1540 -c 2 -a 0 -i 18 -k RTR 
- -t 1.334334739 -s 9 -d 4 -p tcp -e 1540 -c 2 -a 0 -i 18 -k RTR
h -t 1.334334739 -s 9 -d 4 -p tcp -e 1540 -c 2 -a 0 -i 18 -k RTR
+ -t 1.348261319 -s 9 -d 4 -p tcp -e 1540 -c 2 -a 0 -i 19 -k RTR 
- -t 1.348261319 -s 9 -d 4 -p tcp -e 1540 -c 2 -a 0 -i 19 -k RTR
h -t 1.348261319 -s 9 -d 4 -p tcp -e 1540 -c 2 -a 0 -i 19 -k RTR
r -t 1.350147254 -s 0 -d 0 -p ack -e 40 -c 2 -a 0 -i 23 -k AGT
+ -t 1.350147254 -s 0 -d -1 -p tcp -e 1540 -c 2 -a 0 -i 27 -k AGT 
- -t 1.350147254 -s 0 -d -1 -p tcp -e 1540 -c 2 -a 0 -i 27 -k AGT
h -t 1.350147254 -s 0 -d -1 -p tcp -e 1540 -c 2 -a 0 -i 27 -k AGT
+ -t 1.350147254 -s 0 -d -1 -p tcp -e 1540 -c 2 -a 0 -i 28 -k AGT 
- -t 1.350147254 -s 0 -d -1 -p tcp -e 1540 -c 2 -a 0 -i 28 -k AGT
h -t 1.350147254 -s 0 -d -1 -p tcp -e 1540 -c 2 -a 0 -i 28 -k AGT
+ -t 1.350147254 -s 0 -d 9 -p tcp -e 1540 -c 2 -a 0 -i 27 -k RTR 
- -t 1.350147254 -s 0 -d 9 -p tcp -e 1540 -c 2 -a 0 -i 27 -k RTR
h -t 1.350147254 -s 0 -d 9 -p tcp -e 1540 -c 2 -a 0 -i 27 -k RTR
+ -t 1.350147254 -s 0 -d 9 -p tcp -e 1540 -c 2 -a 0 -i 28 -k RTR 
- -t 1.350147254 -s 0 -d 9 -p tcp -e 1540 -c 2 -a 0 -i 28 -k RTR
h -t 1.350147254 -s 0 -d 9 -p tcp -e 1540 -c 2 -a 0 -i 28 -k RTR
+ -t 1.363993189 -s 9 -d 4 -p tcp -e 1540 -c 2 -a 0 -i 20 -k RTR 
- -t 1.363993189 -s 9 -d 4 -p tcp -e 1540 -c 2 -a 0 -i 20 -k RTR
h -t 1.363993189 -s 9 -d 4 -p tcp -e 1540 -c 2 -a 0 -i 20 -k RTR
+ -t 1.378019769 -s 9 -d 4 -p tcp -e 1540 -c 2 -a 0 -i 21 -k RTR 
- -t 1.378019769 -s 9 -d 4 -p tcp -e 1540 -c 2 -a 0 -i 21 -k RTR
h -t 1.378019769 -s 9 -d 4 -p tcp -e 1540 -c 2 -a 0 -i 21 -k RTR
r -t 1.391885859 -s 4 -d 4 -p tcp -e 1540 -c 2 -a 0 -i 17 -k AGT
+ -t 1.391885859 -s 4 -d -1 -p ack -e 40 -c 2 -a 0 -i 29 -k AGT 
- -t 1.391885859 -s 4 -d -1 -p ack -e 40 -c 2 -a 0 -i 29 -k AGT
h -t 1.391885859 -s 4 -d -1 -p ack -e 40 -c 2 -a 0 -i 29 -k AGT
+ -t 1.391885859 -s 4 -d 9 -p ack -e 40 -c 2 -a 0 -i 29 -k RTR 
- -t 1.391885859 -s 4 -d 9 -p ack -e 40 -c 2 -a 0 -i 29 -k RTR
h -t 1.391885859 -s 4 -d 9 -p ack -e 40 -c 2 -a 0 -i 29 -k RTR
+ -t 1.393891948 -s 9 -d 0 -p ack -e 40 -c 2 -a 0 -i 24 -k RTR 
- -t 1.393891948 -s 9 -d 0 -p ack -e 40 -c 2 -a 0 -i 24 -k RTR
h -t 1.393891948 -s 9 -d 0 -p ack -e 40 -c 2 -a 0 -i 24 -k RTR
+ -t 1.407788452 -s 9 -d 4 -p tcp -e 1540 -c 2 -a 0 -i 25 -k RTR 
- -t 1.407788452 -s 9 -d 4 -p tcp -e 1540 -c 2 -a 0 -i 25 -k RTR
h -t 1.407788452 -s 9 -d 4 -p tcp -e 1540 -c 2 -a 0 -i 25 -k RTR
r -t 1.422561829 -s 4 -d 4 -p tcp -e 1540 -c 2 -a 0 -i 18 -k AGT
+ -t 1.422561829 -s 4 -d -1 -p ack -e 40 -c 2 -a 0 -i 30 -k AGT 
- -t 1.422561829 -s 4 -d -1 -p ack -e 40 -c 2 -a 0 -i 30 -k AGT
h -t 1.422561829 -s 4 -d -1 -p ack -e 40 -c 2 -a 0 -i 30 -k AGT
+ -t 1.422561829 -s 4 -d 9 -p ack -e 40 -c 2 -a 0 -i 30 -k RTR 
- -t 1.422561829 -s 4 -d 9 -p ack -e 40 -c 2 -a 0 -i 30 -k RTR
h -t 1.422561829 -s 4 -d 9 -p ack -e 40 -c 2 -a 0 -i 30 -k RTR
r -t 1.436508611 -s 4 -d 4 -p tcp -e 1540 -c 2 -a 0 -i 19 -k AGT
+ -t 1.436508611 -s 4 -d -1 -p ack -e 40 -c 2 -a 0 -i 31 -k AGT 
- -t 1.436508611 -s 4 -d -1 -p ack -e 40 -c 2 -a 0 -i 31 -k AGT
h -t 1.436508611 -s 4 -d -1 -p ack -e 40 -c 2 -a 0 -i 31 -k AGT
+ -t 1.436508611 -s 4 -d 9 -p ack -e 40 -c 2 -a 0 -i 31 -k RTR 
- -t 1.436508611 -s 4 -d 9 -p ack -e 40 -c 2 -a 0 -i 31 -k RTR
h -t 1.436508611 -s 4 -d 9 -p ack -e 40 -c 2 -a 0 -i 31 -k RTR
+ -t 1.438634696 -s 9 -d 0 -p ack -e 40 -c 2 -a 0 -i 29 -k RTR 
- -t 1.438634696 -s 9 -d 0 -p ack -e 40 -c 2 -a 0 -i 29 -k RTR
h -t 1.438634696 -s 9 -d 0 -p ack -e 40 -c 2 -a 0 -i 29 -k RTR
+ -t 1.452531200 -s 9 -d 4 -p tcp -e 1540 -c 2 -a 0 -i 26 -k RTR 
- -t 1.452531200 -s 9 -d 4 -p tcp -e 1540 -c 2 -a 0 -i 26 -k RTR
h -t 1.452531200 -s 9 -d 4 -p tcp -e 1540 -c 2 -a 0 -i 26 -k RTR
r -t 1.466617284 -s 4 -d 4 -p tcp -e 1540 -c 2 -a 0 -i 20 -k AGT
+ -t 1.466617284 -s 4 -d -1 -p ack -e 40 -c 2 -a 0 -i 32 -k AGT 
- -t 1.466617284 -s 4 -d -1 -p ack -e 40 -c 2 -a 0 -i 32 -k AGT
h -t 1.466617284 -s 4 -d -1 -p ack -e 40 -c 2 -a 0 -i 32 -k AGT
+ -t 1.466617284 -s 4 -d 9 -p ack -e 40 -c 2 -a 0 -i 32 -k RTR 
- -t 1.466617284 -s 4 -d 9 -p ack -e 40 -c 2 -a 0 -i 32 -k RTR
h -t 1.466617284 -s 4 -d 9 -p ack -e 40 -c 2 -a 0 -i 32 -k RTR
+ -t 1.468623367 -s 9 -d 0 -p ack -e 40 -c 2 -a 0 -i 30 -k RTR 
- -t 1.468623367 -s 9 -d 0 -p ack -e 40 -c 2 -a 0 -i 30 -k RTR
h -t 1.468623367 -s 9 -d 0 -p ack -e 40 -c 2 -a 0 -i 30 -k RTR
r -t 1.482589449 -s 4 -d 4 -p tcp -e 1540 -c 2 -a 0 -i 21 -k AGT
+ -t 1.482589449 -s 4 -d -1 -p ack -e 40 -c 2 -a 0 -i 33 -k AGT 
- -t 1.482589449 -s 4 -d -1 -p ack -e 40 -c 2 -a 0 -i 33 -k AGT
h -t 1.482589449 -s 4 -d -1 -p ack -e 40 -c 2 -a 0 -i 33 -k AGT
+ -t 1.482589449 -s 4 -d 9 -p ack -e 40 -c 2 -a 0 -i 33 -k RTR 
- -t 1.482589449 -s 4 -d 9 -p ack -e 40 -c 2 -a 0 -i 33 -k RTR
h -t 1.482589449 -s 4 -d 9 -p ack -e 40 -c 2 -a 0 -i 33 -k RTR
+ -t 1.484595530 -s 9 -d 0 -p ack -e 40 -c 2 -a 0 -i 31 -k RTR 
- -t 1.484595530 -s 9 -d 0 -p ack -e 40 -c 2 -a 0 -i 31 -k RTR
h -t 1.484595530 -s 9 -d 0 -p ack -e 40 -c 2 -a 0 -i 31 -k RTR
r -t 1.486561466 -s 0 -d 0 -p ack -e 40 -c 2 -a 0 -i 24 -k AGT
+ -t 1.486561466 -s 0 -d -1 -p tcp -e 1540 -c 2 -a 0 -i 34 -k AGT 
- -t 1.486561466 -s 0 -d -1 -p tcp -e 1540 -c 2 -a 0 -i 34 -k AGT
h -t 1.486561466 -s 0 -d -1 -p tcp -e 1540 -c 2 -a 0 -i 34 -k AGT
+ -t 1.486561466 -s 0 -d -1 -p tcp -e 1540 -c 2 -a 0 -i 35 -k AGT 
- -t 1.486561466 -s 0 -d -1 -p tcp -e 1540 -c 2 -a 0 -i 35 -k AGT
h -t 1.486561466 -s 0 -d -1 -p tcp -e 1540 -c 2 -a 0 -i 35 -k AGT
+ -t 1.486561466 -s 0 -d 9 -p tcp -e 1540 -c 2 -a 0 -i 34 -k RTR 
- -t 1.486561466 -s 0 -d 9 -p tcp -e 1540 -c 2 -a 0 -i 34 -k RTR
h -t 1.486561466 -s 0 -d 9 -p tcp -e 1540 -c 2 -a 0 -i 34 -k RTR
+ -t 1.486561466 -s 0 -d 9 -p tcp -e 1540 -c 2 -a 0 -i 35 -k RTR 
- -t 1.486561466 -s 0 -d 9 -p tcp -e 1540 -c 2 -a 0 -i 35 -k RTR
h -t 1.486561466 -s 0 -d 9 -p tcp -e 1540 -c 2 -a 0 -i 35 -k RTR
r -t 1.500428192 -s 4 -d 4 -p tcp -e 1540 -c 2 -a 0 -i 25 -k AGT
+ -t 1.500428192 -s 4 -d -1 -p ack -e 40 -c 2 -a 0 -i 36 -k AGT 
- -t 1.500428192 -s 4 -d -1 -p ack -e 40 -c 2 -a 0 -i 36 -k AGT
h -t 1.500428192 -s 4 -d -1 -p ack -e 40 -c 2 -a 0 -i 36 -k AGT
+ -t 1.500428192 -s 4 -d 9 -p ack -e 40 -c 2 -a 0 -i 36 -k RTR 
- -t 1.500428192 -s 4 -d 9 -p ack -e 40 -c 2 -a 0 -i 36 -k RTR
h -t 1.500428192 -s 4 -d 9 -p ack -e 40 -c 2 -a 0 -i 36 -k RTR
+ -t 1.502474272 -s 9 -d 0 -p ack -e 40 -c 2 -a 0 -i 32 -k RTR 
- -t 1.502474272 -s 9 -d 0 -p ack -e 40 -c 2 -a 0 -i 32 -k RTR
h -t 1.502474272 -s 9 -d 0 -p ack -e 40 -c 2 -a 0 -i 32 -k RTR
+ -t 1.516430777 -s 9 -d 4 -p tcp -e 1540 -c 2 -a 0 -i 27 -k RTR 
- -t 1.516430777 -s 9 -d 4 -p tcp -e 1540 -c 2 -a 0 -i 27 -k RTR
h -t 1.516430777 -s 9 -d 4 -p tcp -e 1540 -c 2 -a 0 -i 27 -k RTR
+ -t 1.518407473 -s 9 -d 0 -p ack -e 40 -c 2 -a 0 -i 33 -k RTR 
- -t 1.518407473 -s 9 -d 0 -p ack -e 40 -c 2 -a 0 -i 33 -k RTR
h -t 1.518407473 -s 9 -d 0 -p ack -e 40 -c 2 -a 0 -i 33 -k RTR
+ -t 1.532323978 -s 9 -d 4 -p tcp -e 1540 -c 2 -a 0 -i 28 -k RTR 
- -t 1.532323978 -s 9 -d 4 -p tcp -e 1540 -c 2 -a 0 -i 28 -k RTR
h -t 1.532323978 -s 9 -d 4 -p tcp -e 1540 -c 2 -a 0 -i 28 -k RTR
r -t 1.534189913 -s 0 -d 0 -p ack -e 40 -c 2 -a 0 -i 29 -k AGT
+ -t 1.534189913 -s 0 -d -1 -p tcp -e 1540 -c 2 -a 0 -i 37 -k AGT 
- -t 1.534189913 -s 0 -d -1 -p tcp -e 1540 -c 2 -a 0 -i 37 -k AGT
h -t 1.534189913 -s 0 -d -1 -p tcp -e 1540 -c 2 -a 0 -i 37 -k AGT
+ -t 1.534189913 -s 0 -d -1 -p tcp -e 1540 -c 2 -a 0 -i 38 -k AGT 
- -t 1.534189913 -s 0 -d -1 -p tcp -e 1540 -c 2 -a 0 -i 38 -k AGT
h -t 1.534189913 -s 0 -d -1 -p tcp -e 1540 -c 2 -a 0 -i 38 -k AGT
+ -t 1.534189913 -s 0 -d 9 -p tcp -e 1540 -c 2 -a 0 -i 37 -k RTR 
- -t 1.534189913 -s 0 -d 9 -p tcp -e 1540 -c 2 -a 0 -i 37 -k RTR
h -t 1.534189913 -s 0 -d 9 -p tcp -e 1540 -c 2 -a 0 -i 37 -k RTR
+ -t 1.534189913 -s 0 -d 9 -p tcp -e 1540 -c 2 -a 0 -i 38 -k RTR 
- -t 1.534189913 -s 0 -d 9 -p tcp -e 1540 -c 2 -a 0 -i 38 -k RTR
h -t 1.534189913 -s 0 -d 9 -p tcp -e 1540 -c 2 -a 0 -i 38 -k RTR
+ -t 1.537243328 -s 9 -d 0 -p ack -e 40 -c 2 -a 0 -i 36 -k RTR 
- -t 1.537243328 -s 9 -d 0 -p ack -e 40 -c 2 -a 0 -i 36 -k RTR
h -t 1.537243328 -s 9 -d 0 -p ack -e 40 -c 2 -a 0 -i 36 -k RTR
r -t 1.552189405 -s 4 -d 4 -p tcp -e 1540 -c 2 -a 0 -i 26 -k AGT
+ -t 1.552189405 -s 4 -d -1 -p ack -e 40 -c 2 -a 0 -i 39 -k AGT 
- -t 1.552189405 -s 4 -d -1 -p ack -e 40 -c 2 -a 0 -i 39 -k AGT
h -t 1.552189405 -s 4 -d -1 -p ack -e 40 -c 2 -a 0 -i 39 -k AGT
+ -t 1.552189405 -s 4 -d 9 -p ack -e 40 -c 2 -a 0 -i 39 -k RTR 
- -t 1.552189405 -s 4 -d 9 -p ack -e 40 -c 2 -a 0 -i 39 -k RTR
h -t 1.552189405 -s 4 -d 9 -p ack -e 40 -c 2 -a 0 -i 39 -k RTR
+ -t 1.554015481 -s 9 -d 0 -p ack -e 40 -c 2 -a 0 -i 39 -k RTR 
- -t 1.554015481 -s 9 -d 0 -p ack -e 40 -c 2 -a 0 -i 39 -k RTR
h -t 1.554015481 -s 9 -d 0 -p ack -e 40 -c 2 -a 0 -i 39 -k RTR
+ -t 1.567911986 -s 9 -d 4 -p tcp -e 1540 -c 2 -a 0 -i 34 -k RTR 
- -t 1.567911986 -s 9 -d 4 -p tcp -e 1540 -c 2 -a 0 -i 34 -k RTR
h -t 1.567911986 -s 9 -d 4 -p tcp -e 1540 -c 2 -a 0 -i 34 -k RTR
r -t 1.569817922 -s 0 -d 0 -p ack -e 40 -c 2 -a 0 -i 30 -k AGT
+ -t 1.569817922 -s 0 -d -1 -p tcp -e 1540 -c 2 -a 0 -i 40 -k AGT 
- -t 1.569817922 -s 0 -d -1 -p tcp -e 1540 -c 2 -a 0 -i 40 -k AGT
h -t 1.569817922 -s 0 -d -1 -p tcp -e 1540 -c 2 -a 0 -i 40 -k AGT
+ -t 1.569817922 -s 0 -d -1 -p tcp -e 1540 -c 2 -a 0 -i 41 -k AGT 
- -t 1.569817922 -s 0 -d -1 -p tcp -e 1540 -c 2 -a 0 -i 41 -k AGT
h -t 1.569817922 -s 0 -d -1 -p tcp -e 1540 -c 2 -a 0 -i 41 -k AGT
+ -t 1.569817922 -s 0 -d 9 -p tcp -e 1540 -c 2 -a 0 -i 40 -k RTR 
- -t 1.569817922 -s 0 -d 9 -p tcp -e 1540 -c 2 -a 0 -i 40 -k RTR
h -t 1.569817922 -s 0 -d 9 -p tcp -e 1540 -c 2 -a 0 -i 40 -k RTR
+ -t 1.569817922 -s 0 -d 9 -p tcp -e 1540 -c 2 -a 0 -i 41 -k RTR 
- -t 1.569817922 -s 0 -d 9 -p tcp -e 1540 -c 2 -a 0 -i 41 -k RTR
h -t 1.569817922 -s 0 -d 9 -p tcp -e 1540 -c 2 -a 0 -i 41 -k RTR
+ -t 1.583883857 -s 9 -d 4 -p tcp -e 1540 -c 2 -a 0 -i 35 -k RTR 
- -t 1.583883857 -s 9 -d 4 -p tcp -e 1540 -c 2 -a 0 -i 35 -k RTR
h -t 1.583883857 -s 9 -d 4 -p tcp -e 1540 -c 2 -a 0 -i 35 -k RTR
r -t 1.585889793 -s 0 -d 0 -p ack -e 40 -c 2 -a 0 -i 31 -k AGT
+ -t 1.585889793 -s 0 -d -1 -p tcp -e 1540 -c 2 -a 0 -i 42 -k AGT 
- -t 1.585889793 -s 0 -d -1 -p tcp -e 1540 -c 2 -a 0 -i 42 -k AGT
h -t 1.585889793 -s 0 -d -1 -p tcp -e 1540 -c 2 -a 0 -i 42 -k AGT
+ -t 1.585889793 -s 0 -d -1 -p tcp -e 1540 -c 2 -a 0 -i 43 -k AGT 
- -t 1.585889793 -s 0 -d -1 -p tcp -e 1540 -c 2 -a 0 -i 43 -k AGT