M 1.00000 0 (363.00, 380.00, 0.00), (531.00, 425.00), 1.00
M 1.00000 1 (269.00, 308.00, 0.00), (210.00, 961.00), 3.00
M 1.00000 2 (961.00, 882.00, 0.00), (908.00, 210.00), 5.00
M 1.00000 3 (293.00, 485.00, 0.00), (589.00, 540.00), 0.00
M 1.00000 4 (255.00, 13.00, 0.00), (694.00, 988.00), 8.00
M 1.00000 5 (622.00, 322.00, 0.00), (745.00, 862.00), 3.00
M 1.00000 6 (672.00, 70.00, 0.00), (917.00, 640.00), 6.00
M 1.00000 7 (159.00, 55.00, 0.00), (480.00, 380.00), 10.00
M 1.00000 8 (268.00, 394.00, 0.00), (500.00, 479.00), 2.00
M 1.00000 9 (376.00, 187.00, 0.00), (287.00, 810.00), 0.00
s 1.000000000 _0_ AGT  --- 0 tcp 40 [0 0 0 0] ------- [0:0 4:0 32 0] [0 0] 0 0
r 1.000000000 _0_ RTR  --- 0 tcp 40 [0 0 0 0] ------- [0:0 4:0 32 0] [0 0] 0 0
s 1.000000000 _0_ RTR  --- 0 AODV 48 [0 0 0 0] ------- [0:255 -1:255 30 0] [0x2 1 1 [4 0] [0 4]] (REQUEST)
r 1.000988320 _8_ RTR  --- 0 AODV 48 [0 ffffffff 0 800] ------- [0:255 -1:255 30 0] [0x2 1 1 [4 0] [0 4]] (REQUEST)
r 1.000988395 _1_ RTR  --- 0 AODV 48 [0 ffffffff 0 800] ------- [0:255 -1:255 30 0] [0x2 1 1 [4 0] [0 4]] (REQUEST)
r 1.000988421 _3_ RTR  --- 0 AODV 48 [0 ffffffff 0 800] ------- [0:255 -1:255 30 0] [0x2 1 1 [4 0] [0 4]] (REQUEST)
r 1.000988645 _9_ RTR  --- 0 AODV 48 [0 ffffffff 0 800] ------- [0:255 -1:255 30 0] [0x2 1 1 [4 0] [0 4]] (REQUEST)
s 1.001869547 _8_ RTR  --- 0 AODV 48 [0 ffffffff 0 800] ------- [8:255 -1:255 29 0] [0x2 2 1 [4 0] [0 4]] (REQUEST)
r 1.003017833 _1_ RTR  --- 0 AODV 48 [0 ffffffff 8 800] ------- [8:255 -1:255 29 0] [0x2 2 1 [4 0] [0 4]] (REQUEST)
r 1.003017861 _3_ RTR  --- 0 AODV 48 [0 ffffffff 8 800] ------- [8:255 -1:255 29 0] [0x2 2 1 [4 0] [0 4]] (REQUEST)
r 1.003017867 _0_ RTR  --- 0 AODV 48 [0 ffffffff 8 800] ------- [8:255 -1:255 29 0] [0x2 2 1 [4 0] [0 4]] (REQUEST)
r 1.003018325 _9_ RTR  --- 0 AODV 48 [0 ffffffff 8 800] ------- [8:255 -1:255 29 0] [0x2 2 1 [4 0] [0 4]] (REQUEST)
s 1.004118263 _9_ RTR  --- 0 AODV 48 [0 ffffffff 0 800] ------- [9:255 -1:255 29 0] [0x2 2 1 [4 0] [0 4]] (REQUEST)
s 1.005400129 _1_ RTR  --- 0 AODV 48 [0 ffffffff 0 800] ------- [1:255 -1:255 29 0] [0x2 2 1 [4 0] [0 4]] (REQUEST)
r 1.005426801 _1_ RTR  --- 0 AODV 48 [0 ffffffff 9 800] ------- [9:255 -1:255 29 0] [0x2 2 1 [4 0] [0 4]] (REQUEST)
r 1.005426907 _0_ RTR  --- 0 AODV 48 [0 ffffffff 9 800] ------- [9:255 -1:255 29 0] [0x2 2 1 [4 0] [0 4]] (REQUEST)
r 1.005426969 _4_ RTR  --- 0 AODV 48 [0 ffffffff 9 800] ------- [9:255 -1:255 29 0] [0x2 2 1 [4 0] [0 4]] (REQUEST)
s 1.005426969 _4_ RTR  --- 0 AODV 44 [0 0 0 0] ------- [4:255 0:255 30 9] [0x4 1 [4 4] 10.000000] (REPLY)
r 1.005427041 _8_ RTR  --- 0 AODV 48 [0 ffffffff 9 800] ------- [9:255 -1:255 29 0] [0x2 2 1 [4 0] [0 4]] (REQUEST)
s 1.008979975 _3_ RTR  --- 0 AODV 48 [0 ffffffff 0 800] ------- [3:255 -1:255 29 0] [0x2 2 1 [4 0] [0 4]] (REQUEST)
r 1.010049913 _9_ RTR  --- 0 AODV 44 [13a 9 4 800] ------- [4:255 0:255 30 9] [0x4 1 [4 4] 10.000000] (REPLY)
f 1.010049913 _9_ RTR  --- 0 AODV 44 [13a 9 4 800] ------- [4:255 0:255 29 0] [0x4 2 [4 4] 10.000000] (REPLY)
r 1.012260738 _8_ RTR  --- 0 AODV 48 [0 ffffffff 1 800] ------- [1:255 -1:255 29 0] [0x2 2 1 [4 0] [0 4]] (REQUEST)
r 1.012260846 _0_ RTR  --- 0 AODV 48 [0 ffffffff 1 800] ------- [1:255 -1:255 29 0] [0x2 2 1 [4 0] [0 4]] (REQUEST)
r 1.012260990 _9_ RTR  --- 0 AODV 48 [0 ffffffff 1 800] ------- [1:255 -1:255 29 0] [0x2 2 1 [4 0] [0 4]] (REQUEST)
r 1.012261046 _3_ RTR  --- 0 AODV 48 [0 ffffffff 1 800] ------- [1:255 -1:255 29 0] [0x2 2 1 [4 0] [0 4]] (REQUEST)
r 1.015994715 _0_ RTR  --- 0 AODV 44 [13a 0 9 800] ------- [4:255 0:255 29 0] [0x4 2 [4 4] 10.000000] (REPLY)
s 1.015994715 _0_ RTR  --- 0 tcp 40 [0 0 0 0] ------- [0:0 4:0 30 9] [0 0] 0 0
r 1.017277415 _8_ RTR  --- 0 AODV 48 [0 ffffffff 3 800] ------- [3:255 -1:255 29 0] [0x2 2 1 [4 0] [0 4]] (REQUEST)
r 1.017277522 _0_ RTR  --- 0 AODV 48 [0 ffffffff 3 800] ------- [3:255 -1:255 29 0] [0x2 2 1 [4 0] [0 4]] (REQUEST)
r 1.017277696 _1_ RTR  --- 0 AODV 48 [0 ffffffff 3 800] ------- [3:255 -1:255 29 0] [0x2 2 1 [4 0] [0 4]] (REQUEST)
r 1.018809456 _9_ RTR  --- 0 tcp 40 [13a 9 0 800] ------- [0:0 4:0 30 9] [0 0] 1 0
f 1.018809456 _9_ RTR  --- 0 tcp 40 [13a 9 0 800] ------- [0:0 4:0 29 4] [0 0] 1 0
r 1.020795574 _4_ AGT  --- 0 tcp 40 [13a 4 9 800] ------- [0:0 4:0 29 4] [0 0] 2 0
s 1.020795574 _4_ AGT  --- 1 ack 40 [0 0 0 0] ------- [4:0 0:0 32 0] [0 0] 0 0
r 1.020795574 _4_ RTR  --- 1 ack 40 [0 0 0 0] ------- [4:0 0:0 32 0] [0 0] 0 0
s 1.020795574 _4_ RTR  --- 1 ack 40 [0 0 0 0] ------- [4:0 0:0 30 9] [0 0] 0 0
r 1.023061691 _9_ RTR  --- 1 ack 40 [13a 9 4 800] ------- [4:0 0:0 30 9] [0 0] 1 0
f 1.023061691 _9_ RTR  --- 1 ack 40 [13a 9 4 800] ------- [4:0 0:0 29 0] [0 0] 1 0
r 1.025467626 _0_ AGT  --- 1 ack 40 [13a 0 9 800] ------- [4:0 0:0 29 0] [0 0] 2 0
s 1.025467626 _0_ AGT  --- 2 tcp 1540 [0 0 0 0] ------- [0:0 4:0 32 0] [1 0] 0 0
r 1.025467626 _0_ RTR  --- 2 tcp 1540 [0 0 0 0] ------- [0:0 4:0 32 0] [1 0] 0 0
s 1.025467626 _0_ AGT  --- 3 tcp 1540 [0 0 0 0] ------- [0:0 4:0 32 0] [2 0] 0 0
r 1.025467626 _0_ RTR  --- 3 tcp 1540 [0 0 0 0] ------- [0:0 4:0 32 0] [2 0] 0 0
s 1.025467626 _0_ RTR  --- 2 tcp 1540 [0 0 0 0] ------- [0:0 4:0 30 9] [1 0] 0 0
s 1.025467626 _0_ RTR  --- 3 tcp 1540 [0 0 0 0] ------- [0:0 4:0 30 9] [2 0] 0 0
r 1.039833560 _9_ RTR  --- 2 tcp 1540 [13a 9 0 800] ------- [0:0 4:0 30 9] [1 0] 1 0
f 1.039833560 _9_ RTR  --- 2 tcp 1540 [13a 9 0 800] ------- [0:0 4:0 29 4] [1 0] 1 0
r 1.053699676 _4_ AGT  --- 2 tcp 1540 [13a 4 9 800] ------- [0:0 4:0 29 4] [1 0] 2 0
s 1.053699676 _4_ AGT  --- 4 ack 40 [0 0 0 0] ------- [4:0 0:0 32 0] [1 0] 0 0
r 1.053699676 _4_ RTR  --- 4 ack 40 [0 0 0 0] ------- [4:0 0:0 32 0] [1 0] 0 0
s 1.053699676 _4_ RTR  --- 4 ack 40 [0 0 0 0] ------- [4:0 0:0 30 9] [1 0] 0 0
r 1.055885792 _9_ RTR  --- 4 ack 40 [13a 9 4 800] ------- [4:0 0:0 30 9] [1 0] 1 0
f 1.055885792 _9_ RTR  --- 4 ack 40 [13a 9 4 800] ------- [4:0 0:0 29 0] [1 0] 1 0
r 1.057791726 _0_ AGT  --- 4 ack 40 [13a 0 9 800] ------- [4:0 0:0 29 0] [1 0] 2 0
s 1.057791726 _0_ AGT  --- 5 tcp 1540 [0 0 0 0] ------- [0:0 4:0 32 0] [3 0] 0 0
r 1.057791726 _0_ RTR  --- 5 tcp 1540 [0 0 0 0] ------- [0:0 4:0 32 0] [3 0] 0 0
s 1.057791726 _0_ AGT  --- 6 tcp 1540 [0 0 0 0] ------- [0:0 4:0 32 0] [4 0] 0 0
r 1.057791726 _0_ RTR  --- 6 tcp 1540 [0 0 0 0] ------- [0:0 4:0 32 0] [4 0] 0 0
s 1.057791726 _0_ RTR  --- 5 tcp 1540 [0 0 0 0] ------- [0:0 4:0 30 9] [3 0] 0 0
s 1.057791726 _0_ RTR  --- 6 tcp 1540 [0 0 0 0] ------- [0:0 4:0 30 9] [4 0] 0 0
r 1.071857661 _9_ RTR  --- 3 tcp 1540 [13a 9 0 800] ------- [0:0 4:0 30 9] [2 0] 1 0
f 1.071857661 _9_ RTR  --- 3 tcp 1540 [13a 9 0 800] ------- [0:0 4:0 29 4] [2 0] 1 0
r 1.085783774 _4_ AGT  --- 3 tcp 1540 [13a 4 9 800] ------- [0:0 4:0 29 4] [2 0] 2 0
s 1.085783774 _4_ AGT  --- 7 ack 40 [0 0 0 0] ------- [4:0 0:0 32 0] [2 0] 0 0
r 1.085783774 _4_ RTR  --- 7 ack 40 [0 0 0 0] ------- [4:0 0:0 32 0] [2 0] 0 0
s 1.085783774 _4_ RTR  --- 7 ack 40 [0 0 0 0] ------- [4:0 0:0 30 9] [2 0] 0 0
r 1.087789887 _9_ RTR  --- 7 ack 40 [13a 9 4 800] ------- [4:0 0:0 30 9] [2 0] 1 0
f 1.087789887 _9_ RTR  --- 7 ack 40 [13a 9 4 800] ------- [4:0 0:0 29 0] [2 0] 1 0
r 1.089675821 _0_ AGT  --- 7 ack 40 [13a 0 9 800] ------- [4:0 0:0 29 0] [2 0] 2 0
s 1.089675821 _0_ AGT  --- 8 tcp 1540 [0 0 0 0] ------- [0:0 4:0 32 0] [5 0] 0 0
r 1.089675821 _0_ RTR  --- 8 tcp 1540 [0 0 0 0] ------- [0:0 4:0 32 0] [5 0] 0 0
s 1.089675821 _0_ AGT  --- 9 tcp 1540 [0 0 0 0] ------- [0:0 4:0 32 0] [6 0] 0 0
r 1.089675821 _0_ RTR  --- 9 tcp 1540 [0 0 0 0] ------- [0:0 4:0 32 0] [6 0] 0 0
s 1.089675821 _0_ RTR  --- 8 tcp 1540 [0 0 0 0] ------- [0:0 4:0 30 9] [5 0] 0 0
s 1.089675821 _0_ RTR  --- 9 tcp 1540 [0 0 0 0] ------- [0:0 4:0 30 9] [6 0] 0 0
r 1.103921756 _9_ RTR  --- 5 tcp 1540 [13a 9 0 800] ------- [0:0 4:0 30 9] [3 0] 1 0
f 1.103921756 _9_ RTR  --- 5 tcp 1540 [13a 9 0 800] ------- [0:0 4:0 29 4] [3 0] 1 0
r 1.117808335 _9_ RTR  --- 6 tcp 1540 [13a 9 0 800] ------- [0:0 4:0 30 9] [4 0] 1 0
f 1.117808335 _9_ RTR  --- 6 tcp 1540 [13a 9 0 800] ------- [0:0 4:0 29 4] [4 0] 1 0
r 1.131734445 _4_ AGT  --- 5 tcp 1540 [13a 4 9 800] ------- [0:0 4:0 29 4] [3 0] 2 0
s 1.131734445 _4_ AGT  --- 10 ack 40 [0 0 0 0] ------- [4:0 0:0 32 0] [3 0] 0 0
r 1.131734445 _4_ RTR  --- 10 ack 40 [0 0 0 0] ------- [4:0 0:0 32 0] [3 0] 0 0
s 1.131734445 _4_ RTR  --- 10 ack 40 [0 0 0 0] ------- [4:0 0:0 30 9] [3 0] 0 0
r 1.133640554 _9_ RTR  --- 10 ack 40 [13a 9 4 800] ------- [4:0 0:0 30 9] [3 0] 1 0
f 1.133640554 _9_ RTR  --- 10 ack 40 [13a 9 4 800] ------- [4:0 0:0 29 0] [3 0] 1 0
r 1.147537058 _9_ RTR  --- 8 tcp 1540 [13a 9 0 800] ------- [0:0 4:0 30 9] [5 0] 1 0
f 1.147537058 _9_ RTR  --- 8 tcp 1540 [13a 9 0 800] ------- [0:0 4:0 29 4] [5 0] 1 0
r 1.161583166 _4_ AGT  --- 6 tcp 1540 [13a 4 9 800] ------- [0:0 4:0 29 4] [4 0] 2 0
s 1.161583166 _4_ AGT  --- 11 ack 40 [0 0 0 0] ------- [4:0 0:0 32 0] [4 0] 0 0
r 1.161583166 _4_ RTR  --- 11 ack 40 [0 0 0 0] ------- [4:0 0:0 32 0] [4 0] 0 0
s 1.161583166 _4_ RTR  --- 11 ack 40 [0 0 0 0] ------- [4:0 0:0 30 9] [4 0] 0 0
r 1.163589802 _0_ AGT  --- 10 ack 40 [13a 0 9 800] ------- [4:0 0:0 29 0] [3 0] 2 0
s 1.163589802 _0_ AGT  --- 12 tcp 1540 [0 0 0 0] ------- [0:0 4:0 32 0] [7 0] 0 0
r 1.163589802 _0_ RTR  --- 12 tcp 1540 [0 0 0 0] ------- [0:0 4:0 32 0] [7 0] 0 0
s 1.163589802 _0_ AGT  --- 13 tcp 1540 [0 0 0 0] ------- [0:0 4:0 32 0] [8 0] 0 0
r 1.163589802 _0_ RTR  --- 13 tcp 1540 [0 0 0 0] ------- [0:0 4:0 32 0] [8 0] 0 0
s 1.163589802 _0_ RTR  --- 12 tcp 1540 [0 0 0 0] ------- [0:0 4:0 30 9] [7 0] 0 0
s 1.163589802 _0_ RTR  --- 13 tcp 1540 [0 0 0 0] ------- [0:0 4:0 30 9] [8 0] 0 0
r 1.177475737 _9_ RTR  --- 9 tcp 1540 [13a 9 0 800] ------- [0:0 4:0 30 9] [6 0] 1 0
f 1.177475737 _9_ RTR  --- 9 tcp 1540 [13a 9 0 800] ------- [0:0 4:0 29 4] [6 0] 1 0
r 1.179452469 _9_ RTR  --- 11 ack 40 [13a 9 4 800] ------- [4:0 0:0 30 9] [4 0] 1 0
f 1.179452469 _9_ RTR  --- 11 ack 40 [13a 9 4 800] ------- [4:0 0:0 29 0] [4 0] 1 0
r 1.193358574 _4_ AGT  --- 8 tcp 1540 [13a 4 9 800] ------- [0:0 4:0 29 4] [5 0] 2 0
s 1.193358574 _4_ AGT  --- 14 ack 40 [0 0 0 0] ------- [4:0 0:0 32 0] [5 0] 0 0
r 1.193358574 _4_ RTR  --- 14 ack 40 [0 0 0 0] ------- [4:0 0:0 32 0] [5 0] 0 0
s 1.193358574 _4_ RTR  --- 14 ack 40 [0 0 0 0] ------- [4:0 0:0 30 9] [5 0] 0 0
r 1.195404678 _9_ RTR  --- 14 ack 40 [13a 9 4 800] ------- [4:0 0:0 30 9] [5 0] 1 0
f 1.195404678 _9_ RTR  --- 14 ack 40 [13a 9 4 800] ------- [4:0 0:0 29 0] [5 0] 1 0
r 1.209350782 _4_ AGT  --- 9 tcp 1540 [13a 4 9 800] ------- [0:0 4:0 29 4] [6 0] 2 0
s 1.209350782 _4_ AGT  --- 15 ack 40 [0 0 0 0] ------- [4:0 0:0 32 0] [6 0] 0 0
r 1.209350782 _4_ RTR  --- 15 ack 40 [0 0 0 0] ------- [4:0 0:0 32 0] [6 0] 0 0
s 1.209350782 _4_ RTR  --- 15 ack 40 [0 0 0 0] ------- [4:0 0:0 30 9] [6 0] 0 0
r 1.211236885 _9_ RTR  --- 15 ack 40 [13a 9 4 800] ------- [4:0 0:0 30 9] [6 0] 1 0
f 1.211236885 _9_ RTR  --- 15 ack 40 [13a 9 4 800] ------- [4:0 0:0 29 0] [6 0] 1 0
r 1.213242820 _0_ AGT  --- 11 ack 40 [13a 0 9 800] ------- [4:0 0:0 29 0] [4 0] 2 0
s 1.213242820 _0_ AGT  --- 16 tcp 1540 [0 0 0 0] ------- [0:0 4:0 32 0] [9 0] 0 0
r 1.213242820 _0_ RTR  --- 16 tcp 1540 [0 0 0 0] ------- [0:0 4:0 32 0] [9 0] 0 0
s 1.213242820 _0_ AGT  --- 17 tcp 1540 [0 0 0 0] ------- [0:0 4:0 32 0] [10 0] 0 0
r 1.213242820 _0_ RTR  --- 17 tcp 1540 [0 0 0 0] ------- [0:0 4:0 32 0] [10 0] 0 0
s 1.213242820 _0_ RTR  --- 16 tcp 1540 [0 0 0 0] ------- [0:0 4:0 30 9] [9 0] 0 0
s 1.213242820 _0_ RTR  --- 17 tcp 1540 [0 0 0 0] ------- [0:0 4:0 30 9] [10 0] 0 0
r 1.227208754 _9_ RTR  --- 12 tcp 1540 [13a 9 0 800] ------- [0:0 4:0 30 9] [7 0] 1 0
f 1.227208754 _9_ RTR  --- 12 tcp 1540 [13a 9 0 800] ------- [0:0 4:0 29 4] [7 0] 1 0
r 1.241035334 _9_ RTR  --- 13 tcp 1540 [13a 9 0 800] ------- [0:0 4:0 30 9] [8 0] 1 0
f 1.241035334 _9_ RTR  --- 13 tcp 1540 [13a 9 0 800] ------- [0:0 4:0 29 4] [8 0] 1 0
r 1.243021269 _0_ AGT  --- 14 ack 40 [13a 0 9 800] ------- [4:0 0:0 29 0] [5 0] 2 0
s 1.243021269 _0_ AGT  --- 18 tcp 1540 [0 0 0 0] ------- [0:0 4:0 32 0] [11 0] 0 0
r 1.243021269 _0_ RTR  --- 18 tcp 1540 [0 0 0 0] ------- [0:0 4:0 32 0] [11 0] 0 0
s 1.243021269 _0_ AGT  --- 19 tcp 1540 [0 0 0 0] ------- [0:0 4:0 32 0] [12 0] 0 0
r 1.243021269 _0_ RTR  --- 19 tcp 1540 [0 0 0 0] ------- [0:0 4:0 32 0] [12 0] 0 0
s 1.243021269 _0_ RTR  --- 18 tcp 1540 [0 0 0 0] ------- [0:0 4:0 30 9] [11 0] 0 0
s 1.243021269 _0_ RTR  --- 19 tcp 1540 [0 0 0 0] ------- [0:0 4:0 30 9] [12 0] 0 0
r 1.256927204 _9_ RTR  --- 16 tcp 1540 [13a 9 0 800] ------- [0:0 4:0 30 9] [9 0] 1 0
f 1.256927204 _9_ RTR  --- 16 tcp 1540 [13a 9 0 800] ------- [0:0 4:0 29 4] [9 0] 1 0
r 1.258973139 _0_ AGT  --- 15 ack 40 [13a 0 9 800] ------- [4:0 0:0 29 0] [6 0] 2 0
s 1.258973139 _0_ AGT  --- 20 tcp 1540 [0 0 0 0] ------- [0:0 4:0 32 0] [13 0] 0 0
r 1.258973139 _0_ RTR  --- 20 tcp 1540 [0 0 0 0] ------- [0:0 4:0 32 0] [13 0] 0 0
s 1.258973139 _0_ AGT  --- 21 tcp 1540 [0 0 0 0] ------- [0:0 4:0 32 0] [14 0] 0 0
r 1.258973139 _0_ RTR  --- 21 tcp 1540 [0 0 0 0] ------- [0:0 4:0 32 0] [14 0] 0 0
s 1.258973139 _0_ RTR  --- 20 tcp 1540 [0 0 0 0] ------- [0:0 4:0 30 9] [13 0] 0 0
s 1.258973139 _0_ RTR  --- 21 tcp 1540 [0 0 0 0] ------- [0:0 4:0 30 9] [14 0] 0 0
r 1.272819883 _4_ AGT  --- 12 tcp 1540 [13a 4 9 800] ------- [0:0 4:0 29 4] [7 0] 2 0
s 1.272819883 _4_ AGT  --- 22 ack 40 [0 0 0 0] ------- [4:0 0:0 32 0] [7 0] 0 0
r 1.272819883 _4_ RTR  --- 22 ack 40 [0 0 0 0] ------- [4:0 0:0 32 0] [7 0] 0 0
s 1.272819883 _4_ RTR  --- 22 ack 40 [0 0 0 0] ------- [4:0 0:0 30 9] [7 0] 0 0
r 1.286886680 _4_ AGT  --- 13 tcp 1540 [13a 4 9 800] ------- [0:0 4:0 29 4] [8 0] 2 0
s 1.286886680 _4_ AGT  --- 23 ack 40 [0 0 0 0] ------- [4:0 0:0 32 0] [8 0] 0 0
r 1.286886680 _4_ RTR  --- 23 ack 40 [0 0 0 0] ------- [4:0 0:0 32 0] [8 0] 0 0
s 1.286886680 _4_ RTR  --- 23 ack 40 [0 0 0 0] ------- [4:0 0:0 30 9] [8 0] 0 0
r 1.300833475 _4_ AGT  --- 16 tcp 1540 [13a 4 9 800] ------- [0:0 4:0 29 4] [9 0] 2 0
s 1.300833475 _4_ AGT  --- 24 ack 40 [0 0 0 0] ------- [4:0 0:0 32 0] [9 0] 0 0
r 1.300833475 _4_ RTR  --- 24 ack 40 [0 0 0 0] ------- [4:0 0:0 32 0] [9 0] 0 0
s 1.300833475 _4_ RTR  --- 24 ack 40 [0 0 0 0] ------- [4:0 0:0 30 9] [9 0] 0 0
r 1.302779571 _9_ RTR  --- 22 ack 40 [13a 9 4 800] ------- [4:0 0:0 30 9] [7 0] 1 0
f 1.302779571 _9_ RTR  --- 22 ack 40 [13a 9 4 800] ------- [4:0 0:0 29 0] [7 0] 1 0
r 1.304646365 _9_ RTR  --- 23 ack 40 [13a 9 4 800] ------- [4:0 0:0 30 9] [8 0] 1 0
f 1.304646365 _9_ RTR  --- 23 ack 40 [13a 9 4 800] ------- [4:0 0:0 29 0] [8 0] 1 0
r 1.318562869 _9_ RTR  --- 17 tcp 1540 [13a 9 0 800] ------- [0:0 4:0 30 9] [10 0] 1 0
f 1.318562869 _9_ RTR  --- 17 tcp 1540 [13a 9 0 800] ------- [0:0 4:0 29 4] [10 0] 1 0
r 1.320468804 _0_ AGT  --- 22 ack 40 [13a 0 9 800] ------- [4:0 0:0 29 0] [7 0] 2 0
s 1.320468804 _0_ AGT  --- 25 tcp 1540 [0 0 0 0] ------- [0:0 4:0 32 0] [15 0] 0 0
r 1.320468804 _0_ RTR  --- 25 tcp 1540 [0 0 0 0] ------- [0:0 4:0 32 0] [15 0] 0 0
s 1.320468804 _0_ AGT  --- 26 tcp 1540 [0 0 0 0] ------- [0:0 4:0 32 0] [16 0] 0 0
r 1.320468804 _0_ RTR  --- 26 tcp 1540 [0 0 0 0] ------- [0:0 4:0 32 0] [16 0] 0 0
s 1.320468804 _0_ RTR  --- 25 tcp 1540 [0 0 0 0] ------- [0:0 4:0 30 9] [15 0] 0 0
s 1.320468804 _0_ RTR  --- 26 tcp 1540 [0 0 0 0] ------- [0:0 4:0 30 9] [16 0] 0 0
r 1.334334739 _9_ RTR  --- 18 tcp 1540 [13a 9 0 800] ------- [0:0 4:0 30 9] [11 0] 1 0
f 1.334334739 _9_ RTR  --- 18 tcp 1540 [13a 9 0 800] ------- [0:0 4:0 29 4] [11 0] 1 0
r 1.348261319 _9_ RTR  --- 19 tcp 1540 [13a 9 0 800] ------- [0:0 4:0 30 9] [12 0] 1 0
f 1.348261319 _9_ RTR  --- 19 tcp 1540 [13a 9 0 800] ------- [0:0 4:0 29 4] [12 0] 1 0
r 1.350147254 _0_ AGT  --- 23 ack 40 [13a 0 9 800] ------- [4:0 0:0 29 0] [8 0] 2 0
s 1.350147254 _0_ AGT  --- 27 tcp 1540 [0 0 0 0] ------- [0:0 4:0 32 0] [17 0] 0 0
r 1.350147254 _0_ RTR  --- 27 tcp 1540 [0 0 0 0] ------- [0:0 4:0 32 0] [17 0] 0 0
s 1.350147254 _0_ AGT  --- 28 tcp 1540 [0 0 0 0] ------- [0:0 4:0 32 0] [18 0] 0 0
r 1.350147254 _0_ RTR  --- 28 tcp 1540 [0 0 0 0] ------- [0:0 4:0 32 0] [18 0] 0 0
s 1.350147254 _0_ RTR  --- 27 tcp 1540 [0 0 0 0] ------- [0:0 4:0 30 9] [17 0] 0 0
s 1.350147254 _0_ RTR  --- 28 tcp 1540 [0 0 0 0] ------- [0:0 4:0 30 9] [18 0] 0 0
r 1.363993189 _9_ RTR  --- 20 tcp 1540 [13a 9 0 800] ------- [0:0 4:0 30 9] [13 0] 1 0
f 1.363993189 _9_ RTR  --- 20 tcp 1540 [13a 9 0 800] ------- [0:0 4:0 29 4] [13 0] 1 0
r 1.378019769 _9_ RTR  --- 21 tcp 1540 [13a 9 0 800] ------- [0:0 4:0 30 9] [14 0] 1 0
f 1.378019769 _9_ RTR  --- 21 tcp 1540 [13a 9 0 800] ------- [0:0 4:0 29 4] [14 0] 1 0
r 1.391885859 _4_ AGT  --- 17 tcp 1540 [13a 4 9 800] ------- [0:0 4:0 29 4] [10 0] 2 0
s 1.391885859 _4_ AGT  --- 29 ack 40 [0 0 0 0] ------- [4:0 0:0 32 0] [10 0] 0 0
r 1.391885859 _4_ RTR  --- 29 ack 40 [0 0 0 0] ------- [4:0 0:0 32 0] [10 0] 0 0
s 1.391885859 _4_ RTR  --- 29 ack 40 [0 0 0 0] ------- [4:0 0:0 30 9] [10 0] 0 0
r 1.393891948 _9_ RTR  --- 24 ack 40 [13a 9 4 800] ------- [4:0 0:0 30 9] [9 0] 1 0
f 1.393891948 _9_ RTR  --- 24 ack 40 [13a 9 4 800] ------- [4:0 0:0 29 0] [9 0] 1 0
r 1.407788452 _9_ RTR  --- 25 tcp 1540 [13a 9 0 800] ------- [0:0 4:0 30 9] [15 0] 1 0
f 1.407788452 _9_ RTR  --- 25 tcp 1540 [13a 9 0 800] ------- [0:0 4:0 29 4] [15 0] 1 0
r 1.422561829 _4_ AGT  --- 18 tcp 1540 [13a 4 9 800] ------- [0:0 4:0 29 4] [11 0] 2 0
s 1.422561829 _4_ AGT  --- 30 ack 40 [0 0 0 0] ------- [4:0 0:0 32 0] [11 0] 0 0
r 1.422561829 _4_ RTR  --- 30 ack 40 [0 0 0 0] ------- [4:0 0:0 32 0] [11 0] 0 0
s 1.422561829 _4_ RTR  --- 30 ack 40 [0 0 0 0] ------- [4:0 0:0 30 9] [11 0] 0 0
r 1.436508611 _4_ AGT  --- 19 tcp 1540 [13a 4 9 800] ------- [0:0 4:0 29 4] [12 0] 2 0
s 1.436508611 _4_ AGT  --- 31 ack 40 [0 0 0 0] ------- [4:0 0:0 32 0] [12 0] 0 0
r 1.436508611 _4_ RTR  --- 31 ack 40 [0 0 0 0] ------- [4:0 0:0 32 0] [12 0] 0 0
s 1.436508611 _4_ RTR  --- 31 ack 40 [0 0 0 0] ------- [4:0 0:0 30 9] [12 0] 0 0
r 1.438634696 _9_ RTR  --- 29 ack 40 [13a 9 4 800] ------- [4:0 0:0 30 9] [10 0] 1 0
f 1.438634696 _9_ RTR  --- 29 ack 40 [13a 9 4 800] ------- [4:0 0:0 29 0] [10 0] 1 0
r 1.452531200 _9_ RTR  --- 26 tcp 1540 [13a 9 0 800] ------- [0:0 4:0 30 9] [16 0] 1 0
f 1.452531200 _9_ RTR  --- 26 tcp 1540 [13a 9 0 800] ------- [0:0 4:0 29 4] [16 0] 1 0
r 1.466617284 _4_ AGT  --- 20 tcp 1540 [13a 4 9 800] ------- [0:0 4:0 29 4] [13 0] 2 0
s 1.466617284 _4_ AGT  --- 32 ack 40 [0 0 0 0] ------- [4:0 0:0 32 0] [13 0] 0 0
r 1.466617284 _4_ RTR  --- 32 ack 40 [0 0 0 0] ------- [4:0 0:0 32 0] [13 0] 0 0
s 1.466617284 _4_ RTR  --- 32 ack 40 [0 0 0 0] ------- [4:0 0:0 30 9] [13 0] 0 0
r 1.468623367 _9_ RTR  --- 30 ack 40 [13a 9 4 800] ------- [4:0 0:0 30 9] [11 0] 1 0
f 1.468623367 _9_ RTR  --- 30 ack 40 [13a 9 4 800] ------- [4:0 0:0 29 0] [11 0] 1 0
r 1.482589449 _4_ AGT  --- 21 tcp 1540 [13a 4 9 800] ------- [0:0 4:0 29 4] [14 0] 2 0
s 1.482589449 _4_ AGT  --- 33 ack 40 [0 0 0 0] ------- [4:0 0:0 32 0] [14 0] 0 0
r 1.482589449 _4_ RTR  --- 33 ack 40 [0 0 0 0] ------- [4:0 0:0 32 0] [14 0] 0 0
s 1.482589449 _4_ RTR  --- 33 ack 40 [0 0 0 0] ------- [4:0 0:0 30 9] [14 0] 0 0
r 1.484595530 _9_ RTR  --- 31 ack 40 [13a 9 4 800] ------- [4:0 0:0 30 9] [12 0] 1 0
f 1.484595530 _9_ RTR  --- 31 ack 40 [13a 9 4 800] ------- [4:0 0:0 29 0] [12 0] 1 0
r 1.486561466 _0_ AGT  --- 24 ack 40 [13a 0 9 800] ------- [4:0 0:0 29 0] [9 0] 2 0
s 1.486561466 _0_ AGT  --- 34 tcp 1540 [0 0 0 0] ------- [0:0 4:0 32 0] [19 0] 0 0
r 1.486561466 _0_ RTR  --- 34 tcp 1540 [0 0 0 0] ------- [0:0 4:0 32 0] [19 0] 0 0
s 1.486561466 _0_ AGT  --- 35 tcp 1540 [0 0 0 0] ------- [0:0 4:0 32 0] [20 0] 0 0
r 1.486561466 _0_ RTR  --- 35 tcp 1540 [0 0 0 0] ------- [0:0 4:0 32 0] [20 0] 0 0
s 1.486561466 _0_ RTR  --- 34 tcp 1540 [0 0 0 0] ------- [0:0 4:0 30 9] [19 0] 0 0
s 1.486561466 _0_ RTR  --- 35 tcp 1540 [0 0 0 0] ------- [0:0 4:0 30 9] [20 0] 0 0
r 1.500428192 _4_ AGT  --- 25 tcp 1540 [13a 4 9 800] ------- [0:0 4:0 29 4] [15 0] 2 0
s 1.500428192 _4_ AGT  --- 36 ack 40 [0 0 0 0] ------- [4:0 0:0 32 0] [15 0] 0 0
r 1.500428192 _4_ RTR  --- 36 ack 40 [0 0 0 0] ------- [4:0 0:0 32 0] [15 0] 0 0
s 1.500428192 _4_ RTR  --- 36 ack 40 [0 0 0 0] ------- [4:0 0:0 30 9] [15 0] 0 0
r 1.502474272 _9_ RTR  --- 32 ack 40 [13a 9 4 800] ------- [4:0 0:0 30 9] [13 0] 1 0
f 1.502474272 _9_ RTR  --- 32 ack 40 [13a 9 4 800] ------- [4:0 0:0 29 0] [13 0] 1 0
r 1.516430777 _9_ RTR  --- 27 tcp 1540 [13a 9 0 800] ------- [0:0 4:0 30 9] [17 0] 1 0
f 1.516430777 _9_ RTR  --- 27 tcp 1540 [13a 9 0 800] ------- [0:0 4:0 29 4] [17 0] 1 0
r 1.518407473 _9_ RTR  --- 33 ack 40 [13a 9 4 800] ------- [4:0 0:0 30 9] [14 0] 1 0
f 1.518407473 _9_ RTR  --- 33 ack 40 [13a 9 4 800] ------- [4:0 0:0 29 0] [14 0] 1 0
r 1.532323978 _9_ RTR  --- 28 tcp 1540 [13a 9 0 800] ------- [0:0 4:0 30 9] [18 0] 1 0
f 1.532323978 _9_ RTR  --- 28 tcp 1540 [13a 9 0 800] ------- [0:0 4:0 29 4] [18 0] 1 0
r 1.534189913 _0_ AGT  --- 29 ack 40 [13a 0 9 800] ------- [4:0 0:0 29 0] [10 0] 2 0
s 1.534189913 _0_ AGT  --- 37 tcp 1540 [0 0 0 0] ------- [0:0 4:0 32 0] [21 0] 0 0
r 1.534189913 _0_ RTR  --- 37 tcp 1540 [0 0 0 0] ------- [0:0 4:0 32 0] [21 0] 0 0
s 1.534189913 _0_ AGT  --- 38 tcp 1540 [0 0 0 0] ------- [0:0 4:0 32 0] [22 0] 0 0
r 1.534189913 _0_ RTR  --- 38 tcp 1540 [0 0 0 0] ------- [0:0 4:0 32 0] [22 0] 0 0
s 1.534189913 _0_ RTR  --- 37 tcp 1540 [0 0 0 0] ------- [0:0 4:0 30 9] [21 0] 0 0
s 1.534189913 _0_ RTR  --- 38 tcp 1540 [0 0 0 0] ------- [0:0 4:0 30 9] [22 0] 0 0
r 1.537243328 _9_ RTR  --- 36 ack 40 [13a 9 4 800] ------- [4:0 0:0 30 9] [15 0] 1 0
f 1.537243328 _9_ RTR  --- 36 ack 40 [13a 9 4 800] ------- [4:0 0:0 29 0] [15 0] 1 0
r 1.552189405 _4_ AGT  --- 26 tcp 1540 [13a 4 9 800] ------- [0:0 4:0 29 4] [16 0] 2 0
s 1.552189405 _4_ AGT  --- 39 ack 40 [0 0 0 0] ------- [4:0 0:0 32 0] [16 0] 0 0
r 1.552189405 _4_ RTR  --- 39 ack 40 [0 0 0 0] ------- [4:0 0:0 32 0] [16 0] 0 0
s 1.552189405 _4_ RTR  --- 39 ack 40 [0 0 0 0] ------- [4:0 0:0 30 9] [16 0] 0 0
r 1.554015481 _9_ RTR  --- 39 ack 40 [13a 9 4 800] ------- [4:0 0:0 30 9] [16 0] 1 0
f 1.554015481 _9_ RTR  --- 39 ack 40 [13a 9 4 800] ------- [4:0 0:0 29 0] [16 0] 1 0
r 1.567911986 _9_ RTR  --- 34 tcp 1540 [13a 9 0 800] ------- [0:0 4:0 30 9] [19 0] 1 0
f 1.567911986 _9_ RTR  --- 34 tcp 1540 [13a 9 0 800] ------- [0:0 4:0 29 4] [19 0] 1 0
r 1.569817922 _0_ AGT  --- 30 ack 40 [13a 0 9 800] ------- [4:0 0:0 29 0] [11 0] 2 0
s 1.569817922 _0_ AGT  --- 40 tcp 1540 [0 0 0 0] ------- [0:0 4:0 32 0] [23 0] 0 0
r 1.569817922 _0_ RTR  --- 40 tcp 1540 [0 0 0 0] ------- [0:0 4:0 32 0] [23 0] 0 0
s 1.569817922 _0_ AGT  --- 41 tcp 1540 [0 0 0 0] ------- [0:0 4:0 32 0] [24 0] 0 0
r 1.569817922 _0_ RTR  --- 41 tcp 1540 [0 0 0 0] ------- [0:0 4:0 32 0] [24 0] 0 0
s 1.569817922 _0_ RTR  --- 40 tcp 1540 [0 0 0 0] ------- [0:0 4:0 30 9] [23 0] 0 0
s 1.569817922 _0_ RTR  --- 41 tcp 1540 [0 0 0 0] ------- [0:0 4:0 30 9] [24 0] 0 0
r 1.583883857 _9_ RTR  --- 35 tcp 1540 [13a 9 0 800] ------- [0:0 4:0 30 9] [20 0] 1 0
f 1.583883857 _9_ RTR  --- 35 tcp 1540 [13a 9 0 800] ------- [0:0 4:0 29 4] [20 0] 1 0
r 1.585889793 _0_ AGT  --- 31 ack 40 [13a 0 9 800] ------- [4:0 0:0 29 0] [12 0] 2 0
s 1.585889793 _0_ AGT  --- 42 tcp 1540 [0 0 0 0] ------- [0:0 4:0 32 0] [25 0] 0 0
r 1.585889793 _0_ RTR  --- 42 tcp 1540 [0 0 0 0] ------- [0:0 4:0 32 0] [25 0] 0 0
s 1.585889793 _0_ AGT  --- 43 tcp 1540 [0 0 0 0] ------- [0:0 4:0 32 0] [26 0] 0 0
r 1.585889793 _0_ RTR  --- 43 tcp 1540 [0 0 0 0] ------- [0:0 4:0 32 0] [26 0] 0 0
s 1.585889793 _0_ RTR  --- 42 tcp 1540 [0 0 0 0] ------- [0:0 4:0 30 9] [25 0] 0 0
s 1.585889793 _0_ RTR  --- 43 tcp 1540 [0 0 0 0] ------- [0:0 4:0 30 9] [26 0] 0 0
r 1.600923019 _9_ RTR  --- 37 tcp 1540 [13a 9 0 800] ------- [0:0 4:0 30 9] [21 0] 1 0
f 1.600923019 _9_ RTR  --- 37 tcp 1540 [13a 9 0 800] ------- [0:0 4:0 29 4] [21 0] 1 0
r 1.615009599 _9_ RTR  --- 38 tcp 1540 [13a 9 0 800] ------- [0:0 4:0 30 9] [22 0] 1 0
f 1.615009599 _9_ RTR  --- 38 tcp 1540 [13a 9 0 800] ------- [0:0 4:0 29 4] [22 0] 1 0
r 1.628936180 _9_ RTR  --- 40 tcp 1540 [13a 9 0 800] ------- [0:0 4:0 30 9] [23 0] 1 0
f 1.628936180 _9_ RTR  --- 40 tcp 1540 [13a 9 0 800] ------- [0:0 4:0 29 4] [23 0] 1 0
r 1.642762761 _9_ RTR  --- 41 tcp 1540 [13a 9 0 800] ------- [0:0 4:0 30 9] [24 0] 1 0
f 1.642762761 _9_ RTR  --- 41 tcp 1540 [13a 9 0 800] ------- [0:0 4:0 29 4] [24 0] 1 0
r 1.656649342 _9_ RTR  --- 42 tcp 1540 [13a 9 0 800] ------- [0:0 4:0 30 9] [25 0] 1 0
f 1.656649342 _9_ RTR  --- 42 tcp 1540 [13a 9 0 800] ------- [0:0 4:0 29 4] [25 0] 1 0
r 1.658495277 _0_ AGT  --- 32 ack 40 [13a 0 9 800] ------- [4:0 0:0 29 0] [13 0] 2 0
s 1.658495277 _0_ AGT  --- 44 tcp 1540 [0 0 0 0] ------- [0:0 4:0 32 0] [27 0] 0 0
r 1.658495277 _0_ RTR  --- 44 tcp 1540 [0 0 0 0] ------- [0:0 4:0 32 0] [27 0] 0 0
s 1.658495277 _0_ AGT  --- 45 tcp 1540 [0 0 0 0] ------- [0:0 4:0 32 0] [28 0] 0 0
r 1.658495277 _0_ RTR  --- 45 tcp 1540 [0 0 0 0] ------- [0:0 4:0 32 0] [28 0] 0 0
s 1.658495277 _0_ RTR  --- 44 tcp 1540 [0 0 0 0] ------- [0:0 4:0 30 9] [27 0] 0 0
s 1.658495277 _0_ RTR  --- 45 tcp 1540 [0 0 0 0] ------- [0:0 4:0 30 9] [28 0] 0 0
r 1.672821213 _9_ RTR  --- 43 tcp 1540 [13a 9 0 800] ------- [0:0 4:0 30 9] [26 0] 1 0
f 1.672821213 _9_ RTR  --- 43 tcp 1540 [13a 9 0 800] ------- [0:0 4:0 29 4] [26 0] 1 0
r 1.686747279 _4_ AGT  --- 27 tcp 1540 [13a 4 9 800] ------- [0:0 4:0 29 4] [17 0] 2 0
s 1.686747279 _4_ AGT  --- 46 ack 40 [0 0 0 0] ------- [4:0 0:0 32 0] [17 0] 0 0
r 1.686747279 _4_ RTR  --- 46 ack 40 [0 0 0 0] ------- [4:0 0:0 32 0] [17 0] 0 0
s 1.686747279 _4_ RTR  --- 46 ack 40 [0 0 0 0] ------- [4:0 0:0 30 9] [17 0] 0 0
r 1.688593345 _9_ RTR  --- 46 ack 40 [13a 9 4 800] ------- [4:0 0:0 30 9] [17 0] 1 0
f 1.688593345 _9_ RTR  --- 46 ack 40 [13a 9 4 800] ------- [4:0 0:0 29 0] [17 0] 1 0
r 1.690439280 _0_ AGT  --- 33 ack 40 [13a 0 9 800] ------- [4:0 0:0 29 0] [14 0] 2 0
s 1.690439280 _0_ AGT  --- 47 tcp 1540 [0 0 0 0] ------- [0:0 4:0 32 0] [29 0] 0 0
r 1.690439280 _0_ RTR  --- 47 tcp 1540 [0 0 0 0] ------- [0:0 4:0 32 0] [29 0] 0 0
s 1.690439280 _0_ AGT  --- 48 tcp 1540 [0 0 0 0] ------- [0:0 4:0 32 0] [30 0] 0 0
r 1.690439280 _0_ RTR  --- 48 tcp 1540 [0 0 0 0] ------- [0:0 4:0 32 0] [30 0] 0 0
s 1.690439280 _0_ RTR  --- 47 tcp 1540 [0 0 0 0] ------- [0:0 4:0 30 9] [29 0] 0 0
s 1.690439280 _0_ RTR  --- 48 tcp 1540 [0 0 0 0] ------- [0:0 4:0 30 9] [30 0] 0 0
r 1.704525991 _4_ AGT  --- 28 tcp 1540 [13a 4 9 800] ------- [0:0 4:0 29 4] [18 0] 2 0
s 1.704525991 _4_ AGT  --- 49 ack 40 [0 0 0 0] ------- [4:0 0:0 32 0] [18 0] 0 0
r 1.704525991 _4_ RTR  --- 49 ack 40 [0 0 0 0] ------- [4:0 0:0 32 0] [18 0] 0 0
s 1.704525991 _4_ RTR  --- 49 ack 40 [0 0 0 0] ------- [4:0 0:0 30 9] [18 0] 0 0
r 1.706372614 _0_ AGT  --- 36 ack 40 [13a 0 9 800] ------- [4:0 0:0 29 0] [15 0] 2 0
s 1.706372614 _0_ AGT  --- 50 tcp 1540 [0 0 0 0] ------- [0:0 4:0 32 0] [31 0] 0 0
r 1.706372614 _0_ RTR  --- 50 tcp 1540 [0 0 0 0] ------- [0:0 4:0 32 0] [31 0] 0 0
s 1.706372614 _0_ AGT  --- 51 tcp 1540 [0 0 0 0] ------- [0:0 4:0 32 0] [32 0] 0 0
r 1.706372614 _0_ RTR  --- 51 tcp 1540 [0 0 0 0] ------- [0:0 4:0 32 0] [32 0] 0 0
s 1.706372614 _0_ RTR  --- 50 tcp 1540 [0 0 0 0] ------- [0:0 4:0 30 9] [31 0] 0 0
s 1.706372614 _0_ RTR  --- 51 tcp 1540 [0 0 0 0] ------- [0:0 4:0 30 9] [32 0] 0 0
r 1.708219195 _0_ AGT  --- 39 ack 40 [13a 0 9 800] ------- [4:0 0:0 29 0] [16 0] 2 0
s 1.708219195 _0_ AGT  --- 52 tcp 1540 [0 0 0 0] ------- [0:0 4:0 32 0] [33 0] 0 0
r 1.708219195 _0_ RTR  --- 52 tcp 1540 [0 0 0 0] ------- [0:0 4:0 32 0] [33 0] 0 0
s 1.708219195 _0_ AGT  --- 53 tcp 1540 [0 0 0 0] ------- [0:0 4:0 32 0] [34 0] 0 0
r 1.708219195 _0_ RTR  --- 53 tcp 1540 [0 0 0 0] ------- [0:0 4:0 32 0] [34 0] 0 0
s 1.708219195 _0_ RTR  --- 52 tcp 1540 [0 0 0 0] ------- [0:0 4:0 30 9] [33 0] 0 0
s 1.708219195 _0_ RTR  --- 53 tcp 1540 [0 0 0 0] ------- [0:0 4:0 30 9] [34 0] 0 0
r 1.722085131 _9_ RTR  --- 44 tcp 1540 [13a 9 0 800] ------- [0:0 4:0 30 9] [27 0] 1 0
f 1.722085131 _9_ RTR  --- 44 tcp 1540 [13a 9 0 800] ------- [0:0 4:0 29 4] [27 0] 1 0
r 1.724001806 _9_ RTR  --- 49 ack 40 [13a 9 4 800] ------- [4:0 0:0 30 9] [18 0] 1 0
f 1.724001806 _9_ RTR  --- 49 ack 40 [13a 9 4 800] ------- [4:0 0:0 29 0] [18 0] 1 0
r 1.738087869 _4_ AGT  --- 34 tcp 1540 [13a 4 9 800] ------- [0:0 4:0 29 4] [19 0] 2 0
s 1.738087869 _4_ AGT  --- 54 ack 40 [0 0 0 0] ------- [4:0 0:0 32 0] [19 0] 0 0
r 1.738087869 _4_ RTR  --- 54 ack 40 [0 0 0 0] ------- [4:0 0:0 32 0] [19 0] 0 0
s 1.738087869 _4_ RTR  --- 54 ack 40 [0 0 0 0] ------- [4:0 0:0 30 9] [19 0] 0 0
r 1.740053930 _9_ RTR  --- 54 ack 40 [13a 9 4 800] ------- [4:0 0:0 30 9] [19 0] 1 0
f 1.740053930 _9_ RTR  --- 54 ack 40 [13a 9 4 800] ------- [4:0 0:0 29 0] [19 0] 1 0
r 1.754090436 _9_ RTR  --- 45 tcp 1540 [13a 9 0 800] ------- [0:0 4:0 30 9] [28 0] 1 0
f 1.754090436 _9_ RTR  --- 45 tcp 1540 [13a 9 0 800] ------- [0:0 4:0 29 4] [28 0] 1 0
r 1.768076496 _4_ AGT  --- 35 tcp 1540 [13a 4 9 800] ------- [0:0 4:0 29 4] [20 0] 2 0
s 1.768076496 _4_ AGT  --- 55 ack 40 [0 0 0 0] ------- [4:0 0:0 32 0] [20 0] 0 0
r 1.768076496 _4_ RTR  --- 55 ack 40 [0 0 0 0] ------- [4:0 0:0 32 0] [20 0] 0 0
s 1.768076496 _4_ RTR  --- 55 ack 40 [0 0 0 0] ------- [4:0 0:0 30 9] [20 0] 0 0
r 1.769922554 _9_ RTR  --- 55 ack 40 [13a 9 4 800] ------- [4:0 0:0 30 9] [20 0] 1 0
f 1.769922554 _9_ RTR  --- 55 ack 40 [13a 9 4 800] ------- [4:0 0:0 29 0] [20 0] 1 0
r 1.783819060 _9_ RTR  --- 47 tcp 1540 [13a 9 0 800] ------- [0:0 4:0 30 9] [29 0] 1 0
f 1.783819060 _9_ RTR  --- 47 tcp 1540 [13a 9 0 800] ------- [0:0 4:0 29 4] [29 0] 1 0
r 1.797785641 _9_ RTR  --- 48 tcp 1540 [13a 9 0 800] ------- [0:0 4:0 30 9] [30 0] 1 0
f 1.797785641 _9_ RTR  --- 48 tcp 1540 [13a 9 0 800] ------- [0:0 4:0 29 4] [30 0] 1 0
r 1.811852223 _9_ RTR  --- 50 tcp 1540 [13a 9 0 800] ------- [0:0 4:0 30 9] [31 0] 1 0
f 1.811852223 _9_ RTR  --- 50 tcp 1540 [13a 9 0 800] ------- [0:0 4:0 29 4] [31 0] 1 0
r 1.825678804 _9_ RTR  --- 51 tcp 1540 [13a 9 0 800] ------- [0:0 4:0 30 9] [32 0] 1 0