M 1.00000 0 (768.00, 654.00, 0.00), (779.00, 618.00), 4.00
M 1.00000 1 (210.00, 143.00, 0.00), (678.00, 519.00), 2.00
M 1.00000 2 (759.00, 802.00, 0.00), (254.00, 191.00), 1.00
M 1.00000 3 (198.00, 251.00, 0.00), (282.00, 440.00), 9.00
M 1.00000 4 (1006.00, 860.00, 0.00), (127.00, 387.00), 6.00
M 1.00000 5 (128.00, 76.00, 0.00), (649.00, 813.00), 8.00
M 1.00000 6 (663.00, 591.00, 0.00), (250.00, 174.00), 8.00
M 1.00000 7 (748.00, 205.00, 0.00), (703.00, 382.00), 8.00
M 1.00000 8 (513.00, 569.00, 0.00), (858.00, 323.00), 0.00
M 1.00000 9 (316.00, 917.00, 0.00), (187.00, 252.00), 8.00
s 1.000000000 _0_ AGT  --- 0 tcp 40 [0 0 0 0] ------- [0:0 4:0 32 0] [0 0] 0 0
r 1.000000000 _0_ RTR  --- 0 tcp 40 [0 0 0 0] ------- [0:0 4:0 32 0] [0 0] 0 0
s 1.000000000 _0_ RTR  --- 0 AODV 48 [0 0 0 0] ------- [0:255 -1:255 30 0] [0x2 1 1 [4 0] [0 4]] (REQUEST)
r 1.000988408 _6_ RTR  --- 0 AODV 48 [0 ffffffff 0 800] ------- [0:255 -1:255 30 0] [0x2 1 1 [4 0] [0 4]] (REQUEST)
r 1.000988494 _2_ RTR  --- 0 AODV 48 [0 ffffffff 0 800] ------- [0:255 -1:255 30 0] [0x2 1 1 [4 0] [0 4]] (REQUEST)
s 1.001869635 _6_ RTR  --- 0 AODV 48 [0 ffffffff 0 800] ------- [6:255 -1:255 29 0] [0x2 2 1 [4 0] [0 4]] (REQUEST)
r 1.002818043 _0_ RTR  --- 0 AODV 48 [0 ffffffff 6 800] ------- [6:255 -1:255 29 0] [0x2 2 1 [4 0] [0 4]] (REQUEST)
r 1.002818140 _8_ RTR  --- 0 AODV 48 [0 ffffffff 6 800] ------- [6:255 -1:255 29 0] [0x2 2 1 [4 0] [0 4]] (REQUEST)
r 1.002818408 _2_ RTR  --- 0 AODV 48 [0 ffffffff 6 800] ------- [6:255 -1:255 29 0] [0x2 2 1 [4 0] [0 4]] (REQUEST)
s 1.005400228 _2_ RTR  --- 0 AODV 48 [0 ffffffff 0 800] ------- [2:255 -1:255 29 0] [0x2 2 1 [4 0] [0 4]] (REQUEST)
r 1.006588722 _0_ RTR  --- 0 AODV 48 [0 ffffffff 2 800] ------- [2:255 -1:255 29 0] [0x2 2 1 [4 0] [0 4]] (REQUEST)
r 1.006589001 _6_ RTR  --- 0 AODV 48 [0 ffffffff 2 800] ------- [2:255 -1:255 29 0] [0x2 2 1 [4 0] [0 4]] (REQUEST)
s 1.010982901 _8_ RTR  --- 0 AODV 48 [0 ffffffff 6 800] ------- [8:255 -1:255 28 0] [0x2 3 1 [4 0] [0 4]] (REQUEST)
r 1.012191406 _6_ RTR  --- 0 AODV 48 [0 ffffffff 8 800] ------- [8:255 -1:255 28 0] [0x2 3 1 [4 0] [0 4]] (REQUEST)
s 3.000000000 _0_ RTR  --- 0 AODV 48 [0 0 0 0] ------- [0:255 -1:255 30 0] [0x2 1 2 [4 0] [0 6]] (REQUEST)
r 3.000988454 _6_ RTR  --- 0 AODV 48 [0 ffffffff 0 800] ------- [0:255 -1:255 30 0] [0x2 1 2 [4 0] [0 6]] (REQUEST)
r 3.000988515 _2_ RTR  --- 0 AODV 48 [0 ffffffff 0 800] ------- [0:255 -1:255 30 0] [0x2 1 2 [4 0] [0 6]] (REQUEST)
s 3.002126598 _2_ RTR  --- 0 AODV 48 [0 ffffffff 0 800] ------- [2:255 -1:255 29 0] [0x2 2 2 [4 0] [0 6]] (REQUEST)
r 3.003315113 _0_ RTR  --- 0 AODV 48 [0 ffffffff 2 800] ------- [2:255 -1:255 29 0] [0x2 2 2 [4 0] [0 6]] (REQUEST)
r 3.003315410 _4_ RTR  --- 0 AODV 48 [0 ffffffff 2 800] ------- [2:255 -1:255 29 0] [0x2 2 2 [4 0] [0 6]] (REQUEST)
s 3.003315410 _4_ RTR  --- 0 AODV 44 [0 0 0 0] ------- [4:255 0:255 30 2] [0x4 1 [4 4] 10.000000] (REPLY)
r 3.003315414 _6_ RTR  --- 0 AODV 48 [0 ffffffff 2 800] ------- [2:255 -1:255 29 0] [0x2 2 2 [4 0] [0 6]] (REQUEST)
s 3.007389130 _6_ RTR  --- 0 AODV 48 [0 ffffffff 0 800] ------- [6:255 -1:255 29 0] [0x2 2 2 [4 0] [0 6]] (REQUEST)
r 3.008184097 _2_ RTR  --- 0 AODV 44 [13a 2 4 800] ------- [4:255 0:255 30 2] [0x4 1 [4 4] 10.000000] (REPLY)
f 3.008184097 _2_ RTR  --- 0 AODV 44 [13a 2 4 800] ------- [4:255 0:255 29 0] [0x4 2 [4 4] 10.000000] (REPLY)
r 3.010415367 _0_ RTR  --- 0 AODV 48 [0 ffffffff 6 800] ------- [6:255 -1:255 29 0] [0x2 2 2 [4 0] [0 6]] (REQUEST)
r 3.010415377 _8_ RTR  --- 0 AODV 48 [0 ffffffff 6 800] ------- [6:255 -1:255 29 0] [0x2 2 2 [4 0] [0 6]] (REQUEST)
r 3.010415730 _2_ RTR  --- 0 AODV 48 [0 ffffffff 6 800] ------- [6:255 -1:255 29 0] [0x2 2 2 [4 0] [0 6]] (REQUEST)
r 3.014468460 _0_ RTR  --- 0 AODV 44 [13a 0 2 800] ------- [4:255 0:255 29 0] [0x4 2 [4 4] 10.000000] (REPLY)
s 3.014468460 _0_ RTR  --- 0 tcp 40 [0 0 0 0] ------- [0:0 4:0 30 2] [0 0] 0 0
r 3.016434007 _2_ RTR  --- 0 tcp 40 [13a 2 0 800] ------- [0:0 4:0 30 2] [0 0] 1 0
f 3.016434007 _2_ RTR  --- 0 tcp 40 [13a 2 0 800] ------- [0:0 4:0 29 4] [0 0] 1 0
r 3.018480444 _4_ AGT  --- 0 tcp 40 [13a 4 2 800] ------- [0:0 4:0 29 4] [0 0] 2 0
s 3.018480444 _4_ AGT  --- 1 ack 40 [0 0 0 0] ------- [4:0 0:0 32 0] [0 0] 0 0
r 3.018480444 _4_ RTR  --- 1 ack 40 [0 0 0 0] ------- [4:0 0:0 32 0] [0 0] 0 0
s 3.018480444 _4_ RTR  --- 1 ack 40 [0 0 0 0] ------- [4:0 0:0 30 2] [0 0] 0 0
s 3.019036050 _8_ RTR  --- 0 AODV 48 [0 ffffffff 6 800] ------- [8:255 -1:255 28 0] [0x2 3 2 [4 0] [0 6]] (REQUEST)
r 3.022366880 _2_ RTR  --- 1 ack 40 [13a 2 4 800] ------- [4:0 0:0 30 2] [0 0] 1 0
f 3.022366880 _2_ RTR  --- 1 ack 40 [13a 2 4 800] ------- [4:0 0:0 29 0] [0 0] 1 0
r 3.024392427 _0_ AGT  --- 1 ack 40 [13a 0 2 800] ------- [4:0 0:0 29 0] [0 0] 2 0
s 3.024392427 _0_ AGT  --- 2 tcp 1540 [0 0 0 0] ------- [0:0 4:0 32 0] [1 0] 0 0
r 3.024392427 _0_ RTR  --- 2 tcp 1540 [0 0 0 0] ------- [0:0 4:0 32 0] [1 0] 0 0
s 3.024392427 _0_ AGT  --- 3 tcp 1540 [0 0 0 0] ------- [0:0 4:0 32 0] [2 0] 0 0
r 3.024392427 _0_ RTR  --- 3 tcp 1540 [0 0 0 0] ------- [0:0 4:0 32 0] [2 0] 0 0
s 3.024392427 _0_ RTR  --- 2 tcp 1540 [0 0 0 0] ------- [0:0 4:0 30 2] [1 0] 0 0
s 3.024392427 _0_ RTR  --- 3 tcp 1540 [0 0 0 0] ------- [0:0 4:0 30 2] [2 0] 0 0
r 3.038737974 _2_ RTR  --- 2 tcp 1540 [13a 2 0 800] ------- [0:0 4:0 30 2] [1 0] 1 0
f 3.038737974 _2_ RTR  --- 2 tcp 1540 [13a 2 0 800] ------- [0:0 4:0 29 4] [1 0] 1 0
r 3.052764409 _4_ AGT  --- 2 tcp 1540 [13a 4 2 800] ------- [0:0 4:0 29 4] [1 0] 2 0
s 3.052764409 _4_ AGT  --- 4 ack 40 [0 0 0 0] ------- [4:0 0:0 32 0] [1 0] 0 0
r 3.052764409 _4_ RTR  --- 4 ack 40 [0 0 0 0] ------- [4:0 0:0 32 0] [1 0] 0 0
s 3.052764409 _4_ RTR  --- 4 ack 40 [0 0 0 0] ------- [4:0 0:0 30 2] [1 0] 0 0
r 3.054650844 _2_ RTR  --- 4 ack 40 [13a 2 4 800] ------- [4:0 0:0 30 2] [1 0] 1 0
f 3.054650844 _2_ RTR  --- 4 ack 40 [13a 2 4 800] ------- [4:0 0:0 29 0] [1 0] 1 0
r 3.056556392 _0_ AGT  --- 4 ack 40 [13a 0 2 800] ------- [4:0 0:0 29 0] [1 0] 2 0
s 3.056556392 _0_ AGT  --- 5 tcp 1540 [0 0 0 0] ------- [0:0 4:0 32 0] [3 0] 0 0
r 3.056556392 _0_ RTR  --- 5 tcp 1540 [0 0 0 0] ------- [0:0 4:0 32 0] [3 0] 0 0
s 3.056556392 _0_ AGT  --- 6 tcp 1540 [0 0 0 0] ------- [0:0 4:0 32 0] [4 0] 0 0
r 3.056556392 _0_ RTR  --- 6 tcp 1540 [0 0 0 0] ------- [0:0 4:0 32 0] [4 0] 0 0
s 3.056556392 _0_ RTR  --- 5 tcp 1540 [0 0 0 0] ------- [0:0 4:0 30 2] [3 0] 0 0
s 3.056556392 _0_ RTR  --- 6 tcp 1540 [0 0 0 0] ------- [0:0 4:0 30 2] [4 0] 0 0
r 3.070741940 _2_ RTR  --- 3 tcp 1540 [13a 2 0 800] ------- [0:0 4:0 30 2] [2 0] 1 0
f 3.070741940 _2_ RTR  --- 3 tcp 1540 [13a 2 0 800] ------- [0:0 4:0 29 4] [2 0] 1 0
r 3.084708374 _4_ AGT  --- 3 tcp 1540 [13a 4 2 800] ------- [0:0 4:0 29 4] [2 0] 2 0
s 3.084708374 _4_ AGT  --- 7 ack 40 [0 0 0 0] ------- [4:0 0:0 32 0] [2 0] 0 0
r 3.084708374 _4_ RTR  --- 7 ack 40 [0 0 0 0] ------- [4:0 0:0 32 0] [2 0] 0 0
s 3.084708374 _4_ RTR  --- 7 ack 40 [0 0 0 0] ------- [4:0 0:0 30 2] [2 0] 0 0
r 3.086734807 _2_ RTR  --- 7 ack 40 [13a 2 4 800] ------- [4:0 0:0 30 2] [2 0] 1 0
f 3.086734807 _2_ RTR  --- 7 ack 40 [13a 2 4 800] ------- [4:0 0:0 29 0] [2 0] 1 0
r 3.100750565 _2_ RTR  --- 5 tcp 1540 [13a 2 0 800] ------- [0:0 4:0 30 2] [3 0] 1 0
f 3.100750565 _2_ RTR  --- 5 tcp 1540 [13a 2 0 800] ------- [0:0 4:0 29 4] [3 0] 1 0
r 3.114576631 _2_ RTR  --- 6 tcp 1540 [13a 2 0 800] ------- [0:0 4:0 30 2] [4 0] 1 0
f 3.114576631 _2_ RTR  --- 6 tcp 1540 [13a 2 0 800] ------- [0:0 4:0 29 4] [4 0] 1 0
r 3.116502181 _0_ AGT  --- 7 ack 40 [13a 0 2 800] ------- [4:0 0:0 29 0] [2 0] 2 0
s 3.116502181 _0_ AGT  --- 8 tcp 1540 [0 0 0 0] ------- [0:0 4:0 32 0] [5 0] 0 0
r 3.116502181 _0_ RTR  --- 8 tcp 1540 [0 0 0 0] ------- [0:0 4:0 32 0] [5 0] 0 0
s 3.116502181 _0_ AGT  --- 9 tcp 1540 [0 0 0 0] ------- [0:0 4:0 32 0] [6 0] 0 0
r 3.116502181 _0_ RTR  --- 9 tcp 1540 [0 0 0 0] ------- [0:0 4:0 32 0] [6 0] 0 0
s 3.116502181 _0_ RTR  --- 8 tcp 1540 [0 0 0 0] ------- [0:0 4:0 30 2] [5 0] 0 0
s 3.116502181 _0_ RTR  --- 9 tcp 1540 [0 0 0 0] ------- [0:0 4:0 30 2] [6 0] 0 0
r 3.130447731 _2_ RTR  --- 8 tcp 1540 [13a 2 0 800] ------- [0:0 4:0 30 2] [5 0] 1 0
f 3.130447731 _2_ RTR  --- 8 tcp 1540 [13a 2 0 800] ------- [0:0 4:0 29 4] [5 0] 1 0
r 3.144433798 _2_ RTR  --- 9 tcp 1540 [13a 2 0 800] ------- [0:0 4:0 30 2] [6 0] 1 0
f 3.144433798 _2_ RTR  --- 9 tcp 1540 [13a 2 0 800] ------- [0:0 4:0 29 4] [6 0] 1 0
r 3.158300228 _4_ AGT  --- 5 tcp 1540 [13a 4 2 800] ------- [0:0 4:0 29 4] [3 0] 2 0
s 3.158300228 _4_ AGT  --- 10 ack 40 [0 0 0 0] ------- [4:0 0:0 32 0] [3 0] 0 0
r 3.158300228 _4_ RTR  --- 10 ack 40 [0 0 0 0] ------- [4:0 0:0 32 0] [3 0] 0 0
s 3.158300228 _4_ RTR  --- 10 ack 40 [0 0 0 0] ------- [4:0 0:0 30 2] [3 0] 0 0
r 3.172207468 _4_ AGT  --- 6 tcp 1540 [13a 4 2 800] ------- [0:0 4:0 29 4] [4 0] 2 0
s 3.172207468 _4_ AGT  --- 11 ack 40 [0 0 0 0] ------- [4:0 0:0 32 0] [4 0] 0 0
r 3.172207468 _4_ RTR  --- 11 ack 40 [0 0 0 0] ------- [4:0 0:0 32 0] [4 0] 0 0
s 3.172207468 _4_ RTR  --- 11 ack 40 [0 0 0 0] ------- [4:0 0:0 30 2] [4 0] 0 0
r 3.174113896 _2_ RTR  --- 10 ack 40 [13a 2 4 800] ------- [4:0 0:0 30 2] [3 0] 1 0
f 3.174113896 _2_ RTR  --- 10 ack 40 [13a 2 4 800] ------- [4:0 0:0 29 0] [3 0] 1 0
r 3.175941134 _2_ RTR  --- 11 ack 40 [13a 2 4 800] ------- [4:0 0:0 30 2] [4 0] 1 0
f 3.175941134 _2_ RTR  --- 11 ack 40 [13a 2 4 800] ------- [4:0 0:0 29 0] [4 0] 1 0
r 3.190007563 _4_ AGT  --- 8 tcp 1540 [13a 4 2 800] ------- [0:0 4:0 29 4] [5 0] 2 0
s 3.190007563 _4_ AGT  --- 12 ack 40 [0 0 0 0] ------- [4:0 0:0 32 0] [5 0] 0 0
r 3.190007563 _4_ RTR  --- 12 ack 40 [0 0 0 0] ------- [4:0 0:0 32 0] [5 0] 0 0
s 3.190007563 _4_ RTR  --- 12 ack 40 [0 0 0 0] ------- [4:0 0:0 30 2] [5 0] 0 0
r 3.191853991 _2_ RTR  --- 12 ack 40 [13a 2 4 800] ------- [4:0 0:0 30 2] [5 0] 1 0
f 3.191853991 _2_ RTR  --- 12 ack 40 [13a 2 4 800] ------- [4:0 0:0 29 0] [5 0] 1 0
r 3.205980418 _4_ AGT  --- 9 tcp 1540 [13a 4 2 800] ------- [0:0 4:0 29 4] [6 0] 2 0
s 3.205980418 _4_ AGT  --- 13 ack 40 [0 0 0 0] ------- [4:0 0:0 32 0] [6 0] 0 0
r 3.205980418 _4_ RTR  --- 13 ack 40 [0 0 0 0] ------- [4:0 0:0 32 0] [6 0] 0 0
s 3.205980418 _4_ RTR  --- 13 ack 40 [0 0 0 0] ------- [4:0 0:0 30 2] [6 0] 0 0
r 3.207826845 _2_ RTR  --- 13 ack 40 [13a 2 4 800] ------- [4:0 0:0 30 2] [6 0] 1 0
f 3.207826845 _2_ RTR  --- 13 ack 40 [13a 2 4 800] ------- [4:0 0:0 29 0] [6 0] 1 0
r 3.210132398 _0_ AGT  --- 10 ack 40 [13a 0 2 800] ------- [4:0 0:0 29 0] [3 0] 2 0
s 3.210132398 _0_ AGT  --- 14 tcp 1540 [0 0 0 0] ------- [0:0 4:0 32 0] [7 0] 0 0
r 3.210132398 _0_ RTR  --- 14 tcp 1540 [0 0 0 0] ------- [0:0 4:0 32 0] [7 0] 0 0
s 3.210132398 _0_ AGT  --- 15 tcp 1540 [0 0 0 0] ------- [0:0 4:0 32 0] [8 0] 0 0
r 3.210132398 _0_ RTR  --- 15 tcp 1540 [0 0 0 0] ------- [0:0 4:0 32 0] [8 0] 0 0
s 3.210132398 _0_ RTR  --- 14 tcp 1540 [0 0 0 0] ------- [0:0 4:0 30 2] [7 0] 0 0
s 3.210132398 _0_ RTR  --- 15 tcp 1540 [0 0 0 0] ------- [0:0 4:0 30 2] [8 0] 0 0
r 3.224077951 _2_ RTR  --- 14 tcp 1540 [13a 2 0 800] ------- [0:0 4:0 30 2] [7 0] 1 0
f 3.224077951 _2_ RTR  --- 14 tcp 1540 [13a 2 0 800] ------- [0:0 4:0 29 4] [7 0] 1 0
r 3.237944022 _2_ RTR  --- 15 tcp 1540 [13a 2 0 800] ------- [0:0 4:0 30 2] [8 0] 1 0
f 3.237944022 _2_ RTR  --- 15 tcp 1540 [13a 2 0 800] ------- [0:0 4:0 29 4] [8 0] 1 0
r 3.239909576 _0_ AGT  --- 11 ack 40 [13a 0 2 800] ------- [4:0 0:0 29 0] [4 0] 2 0
s 3.239909576 _0_ AGT  --- 16 tcp 1540 [0 0 0 0] ------- [0:0 4:0 32 0] [9 0] 0 0
r 3.239909576 _0_ RTR  --- 16 tcp 1540 [0 0 0 0] ------- [0:0 4:0 32 0] [9 0] 0 0
s 3.239909576 _0_ AGT  --- 17 tcp 1540 [0 0 0 0] ------- [0:0 4:0 32 0] [10 0] 0 0
r 3.239909576 _0_ RTR  --- 17 tcp 1540 [0 0 0 0] ------- [0:0 4:0 32 0] [10 0] 0 0
s 3.239909576 _0_ RTR  --- 16 tcp 1540 [0 0 0 0] ------- [0:0 4:0 30 2] [9 0] 0 0
s 3.239909576 _0_ RTR  --- 17 tcp 1540 [0 0 0 0] ------- [0:0 4:0 30 2] [10 0] 0 0
r 3.241855648 _0_ AGT  --- 12 ack 40 [13a 0 2 800] ------- [4:0 0:0 29 0] [5 0] 2 0
s 3.241855648 _0_ AGT  --- 18 tcp 1540 [0 0 0 0] ------- [0:0 4:0 32 0] [11 0] 0 0
r 3.241855648 _0_ RTR  --- 18 tcp 1540 [0 0 0 0] ------- [0:0 4:0 32 0] [11 0] 0 0
s 3.241855648 _0_ AGT  --- 19 tcp 1540 [0 0 0 0] ------- [0:0 4:0 32 0] [12 0] 0 0
r 3.241855648 _0_ RTR  --- 19 tcp 1540 [0 0 0 0] ------- [0:0 4:0 32 0] [12 0] 0 0
s 3.241855648 _0_ RTR  --- 18 tcp 1540 [0 0 0 0] ------- [0:0 4:0 30 2] [11 0] 0 0
s 3.241855648 _0_ RTR  --- 19 tcp 1540 [0 0 0 0] ------- [0:0 4:0 30 2] [12 0] 0 0
r 3.256768238 _2_ RTR  --- 16 tcp 1540 [13a 2 0 800] ------- [0:0 4:0 30 2] [9 0] 1 0
f 3.256768238 _2_ RTR  --- 16 tcp 1540 [13a 2 0 800] ------- [0:0 4:0 29 4] [9 0] 1 0
r 3.270854311 _2_ RTR  --- 17 tcp 1540 [13a 2 0 800] ------- [0:0 4:0 30 2] [10 0] 1 0
f 3.270854311 _2_ RTR  --- 17 tcp 1540 [13a 2 0 800] ------- [0:0 4:0 29 4] [10 0] 1 0
r 3.284880384 _2_ RTR  --- 18 tcp 1540 [13a 2 0 800] ------- [0:0 4:0 30 2] [11 0] 1 0
f 3.284880384 _2_ RTR  --- 18 tcp 1540 [13a 2 0 800] ------- [0:0 4:0 29 4] [11 0] 1 0
r 3.298766458 _2_ RTR  --- 19 tcp 1540 [13a 2 0 800] ------- [0:0 4:0 30 2] [12 0] 1 0
f 3.298766458 _2_ RTR  --- 19 tcp 1540 [13a 2 0 800] ------- [0:0 4:0 29 4] [12 0] 1 0
r 3.300672014 _0_ AGT  --- 13 ack 40 [13a 0 2 800] ------- [4:0 0:0 29 0] [6 0] 2 0
s 3.300672014 _0_ AGT  --- 20 tcp 1540 [0 0 0 0] ------- [0:0 4:0 32 0] [13 0] 0 0
r 3.300672014 _0_ RTR  --- 20 tcp 1540 [0 0 0 0] ------- [0:0 4:0 32 0] [13 0] 0 0
s 3.300672014 _0_ AGT  --- 21 tcp 1540 [0 0 0 0] ------- [0:0 4:0 32 0] [14 0] 0 0
r 3.300672014 _0_ RTR  --- 21 tcp 1540 [0 0 0 0] ------- [0:0 4:0 32 0] [14 0] 0 0
s 3.300672014 _0_ RTR  --- 20 tcp 1540 [0 0 0 0] ------- [0:0 4:0 30 2] [13 0] 0 0
s 3.300672014 _0_ RTR  --- 21 tcp 1540 [0 0 0 0] ------- [0:0 4:0 30 2] [14 0] 0 0
r 3.314757570 _2_ RTR  --- 20 tcp 1540 [13a 2 0 800] ------- [0:0 4:0 30 2] [13 0] 1 0
f 3.314757570 _2_ RTR  --- 20 tcp 1540 [13a 2 0 800] ------- [0:0 4:0 29 4] [13 0] 1 0
r 3.328703645 _2_ RTR  --- 21 tcp 1540 [13a 2 0 800] ------- [0:0 4:0 30 2] [14 0] 1 0
f 3.328703645 _2_ RTR  --- 21 tcp 1540 [13a 2 0 800] ------- [0:0 4:0 29 4] [14 0] 1 0
r 3.342750066 _4_ AGT  --- 14 tcp 1540 [13a 4 2 800] ------- [0:0 4:0 29 4] [7 0] 2 0
s 3.342750066 _4_ AGT  --- 22 ack 40 [0 0 0 0] ------- [4:0 0:0 32 0] [7 0] 0 0
r 3.342750066 _4_ RTR  --- 22 ack 40 [0 0 0 0] ------- [4:0 0:0 32 0] [7 0] 0 0
s 3.342750066 _4_ RTR  --- 22 ack 40 [0 0 0 0] ------- [4:0 0:0 30 2] [7 0] 0 0
r 3.356697292 _4_ AGT  --- 15 tcp 1540 [13a 4 2 800] ------- [0:0 4:0 29 4] [8 0] 2 0
s 3.356697292 _4_ AGT  --- 23 ack 40 [0 0 0 0] ------- [4:0 0:0 32 0] [8 0] 0 0
r 3.356697292 _4_ RTR  --- 23 ack 40 [0 0 0 0] ------- [4:0 0:0 32 0] [8 0] 0 0
s 3.356697292 _4_ RTR  --- 23 ack 40 [0 0 0 0] ------- [4:0 0:0 30 2] [8 0] 0 0
r 3.358983712 _2_ RTR  --- 22 ack 40 [13a 2 4 800] ------- [4:0 0:0 30 2] [7 0] 1 0
f 3.358983712 _2_ RTR  --- 22 ack 40 [13a 2 4 800] ------- [4:0 0:0 29 0] [7 0] 1 0
r 3.372970131 _4_ AGT  --- 16 tcp 1540 [13a 4 2 800] ------- [0:0 4:0 29 4] [9 0] 2 0
s 3.372970131 _4_ AGT  --- 24 ack 40 [0 0 0 0] ------- [4:0 0:0 32 0] [9 0] 0 0
r 3.372970131 _4_ RTR  --- 24 ack 40 [0 0 0 0] ------- [4:0 0:0 32 0] [9 0] 0 0
s 3.372970131 _4_ RTR  --- 24 ack 40 [0 0 0 0] ------- [4:0 0:0 30 2] [9 0] 0 0
r 3.375096550 _2_ RTR  --- 23 ack 40 [13a 2 4 800] ------- [4:0 0:0 30 2] [8 0] 1 0
f 3.375096550 _2_ RTR  --- 23 ack 40 [13a 2 4 800] ------- [4:0 0:0 29 0] [8 0] 1 0
r 3.389182969 _4_ AGT  --- 17 tcp 1540 [13a 4 2 800] ------- [0:0 4:0 29 4] [10 0] 2 0
s 3.389182969 _4_ AGT  --- 25 ack 40 [0 0 0 0] ------- [4:0 0:0 32 0] [10 0] 0 0
r 3.389182969 _4_ RTR  --- 25 ack 40 [0 0 0 0] ------- [4:0 0:0 32 0] [10 0] 0 0
s 3.389182969 _4_ RTR  --- 25 ack 40 [0 0 0 0] ------- [4:0 0:0 30 2] [10 0] 0 0
r 3.391069386 _2_ RTR  --- 24 ack 40 [13a 2 4 800] ------- [4:0 0:0 30 2] [9 0] 1 0
f 3.391069386 _2_ RTR  --- 24 ack 40 [13a 2 4 800] ------- [4:0 0:0 29 0] [9 0] 1 0
r 3.405155804 _4_ AGT  --- 18 tcp 1540 [13a 4 2 800] ------- [0:0 4:0 29 4] [11 0] 2 0
s 3.405155804 _4_ AGT  --- 26 ack 40 [0 0 0 0] ------- [4:0 0:0 32 0] [11 0] 0 0
r 3.405155804 _4_ RTR  --- 26 ack 40 [0 0 0 0] ------- [4:0 0:0 32 0] [11 0] 0 0
s 3.405155804 _4_ RTR  --- 26 ack 40 [0 0 0 0] ------- [4:0 0:0 30 2] [11 0] 0 0
r 3.407042221 _2_ RTR  --- 25 ack 40 [13a 2 4 800] ------- [4:0 0:0 30 2] [10 0] 1 0
f 3.407042221 _2_ RTR  --- 25 ack 40 [13a 2 4 800] ------- [4:0 0:0 29 0] [10 0] 1 0
r 3.408909444 _2_ RTR  --- 26 ack 40 [13a 2 4 800] ------- [4:0 0:0 30 2] [11 0] 1 0
f 3.408909444 _2_ RTR  --- 26 ack 40 [13a 2 4 800] ------- [4:0 0:0 29 0] [11 0] 1 0
r 3.422995861 _4_ AGT  --- 19 tcp 1540 [13a 4 2 800] ------- [0:0 4:0 29 4] [12 0] 2 0
s 3.422995861 _4_ AGT  --- 27 ack 40 [0 0 0 0] ------- [4:0 0:0 32 0] [12 0] 0 0
r 3.422995861 _4_ RTR  --- 27 ack 40 [0 0 0 0] ------- [4:0 0:0 32 0] [12 0] 0 0
s 3.422995861 _4_ RTR  --- 27 ack 40 [0 0 0 0] ------- [4:0 0:0 30 2] [12 0] 0 0
r 3.437043082 _4_ AGT  --- 20 tcp 1540 [13a 4 2 800] ------- [0:0 4:0 29 4] [13 0] 2 0
s 3.437043082 _4_ AGT  --- 28 ack 40 [0 0 0 0] ------- [4:0 0:0 32 0] [13 0] 0 0
r 3.437043082 _4_ RTR  --- 28 ack 40 [0 0 0 0] ------- [4:0 0:0 32 0] [13 0] 0 0
s 3.437043082 _4_ RTR  --- 28 ack 40 [0 0 0 0] ------- [4:0 0:0 30 2] [13 0] 0 0
r 3.438989498 _2_ RTR  --- 27 ack 40 [13a 2 4 800] ------- [4:0 0:0 30 2] [12 0] 1 0
f 3.438989498 _2_ RTR  --- 27 ack 40 [13a 2 4 800] ------- [4:0 0:0 29 0] [12 0] 1 0
r 3.452895913 _4_ AGT  --- 21 tcp 1540 [13a 4 2 800] ------- [0:0 4:0 29 4] [14 0] 2 0
s 3.452895913 _4_ AGT  --- 29 ack 40 [0 0 0 0] ------- [4:0 0:0 32 0] [14 0] 0 0
r 3.452895913 _4_ RTR  --- 29 ack 40 [0 0 0 0] ------- [4:0 0:0 32 0] [14 0] 0 0
s 3.452895913 _4_ RTR  --- 29 ack 40 [0 0 0 0] ------- [4:0 0:0 30 2] [14 0] 0 0
r 3.454822328 _2_ RTR  --- 28 ack 40 [13a 2 4 800] ------- [4:0 0:0 30 2] [13 0] 1 0
f 3.454822328 _2_ RTR  --- 28 ack 40 [13a 2 4 800] ------- [4:0 0:0 29 0] [13 0] 1 0
r 3.457007889 _0_ AGT  --- 22 ack 40 [13a 0 2 800] ------- [4:0 0:0 29 0] [7 0] 2 0
s 3.457007889 _0_ AGT  --- 30 tcp 1540 [0 0 0 0] ------- [0:0 4:0 32 0] [15 0] 0 0
r 3.457007889 _0_ RTR  --- 30 tcp 1540 [0 0 0 0] ------- [0:0 4:0 32 0] [15 0] 0 0
s 3.457007889 _0_ AGT  --- 31 tcp 1540 [0 0 0 0] ------- [0:0 4:0 32 0] [16 0] 0 0
r 3.457007889 _0_ RTR  --- 31 tcp 1540 [0 0 0 0] ------- [0:0 4:0 32 0] [16 0] 0 0
s 3.457007889 _0_ RTR  --- 30 tcp 1540 [0 0 0 0] ------- [0:0 4:0 30 2] [15 0] 0 0
s 3.457007889 _0_ RTR  --- 31 tcp 1540 [0 0 0 0] ------- [0:0 4:0 30 2] [16 0] 0 0
r 3.470953449 _2_ RTR  --- 30 tcp 1540 [13a 2 0 800] ------- [0:0 4:0 30 2] [15 0] 1 0
f 3.470953449 _2_ RTR  --- 30 tcp 1540 [13a 2 0 800] ------- [0:0 4:0 29 4] [15 0] 1 0
r 3.472819011 _0_ AGT  --- 23 ack 40 [13a 0 2 800] ------- [4:0 0:0 29 0] [8 0] 2 0
s 3.472819011 _0_ AGT  --- 32 tcp 1540 [0 0 0 0] ------- [0:0 4:0 32 0] [17 0] 0 0
r 3.472819011 _0_ RTR  --- 32 tcp 1540 [0 0 0 0] ------- [0:0 4:0 32 0] [17 0] 0 0
s 3.472819011 _0_ AGT  --- 33 tcp 1540 [0 0 0 0] ------- [0:0 4:0 32 0] [18 0] 0 0
r 3.472819011 _0_ RTR  --- 33 tcp 1540 [0 0 0 0] ------- [0:0 4:0 32 0] [18 0] 0 0
s 3.472819011 _0_ RTR  --- 32 tcp 1540 [0 0 0 0] ------- [0:0 4:0 30 2] [17 0] 0 0
s 3.472819011 _0_ RTR  --- 33 tcp 1540 [0 0 0 0] ------- [0:0 4:0 30 2] [18 0] 0 0
r 3.474645093 _0_ AGT  --- 24 ack 40 [13a 0 2 800] ------- [4:0 0:0 29 0] [9 0] 2 0
s 3.474645093 _0_ AGT  --- 34 tcp 1540 [0 0 0 0] ------- [0:0 4:0 32 0] [19 0] 0 0
r 3.474645093 _0_ RTR  --- 34 tcp 1540 [0 0 0 0] ------- [0:0 4:0 32 0] [19 0] 0 0
s 3.474645093 _0_ AGT  --- 35 tcp 1540 [0 0 0 0] ------- [0:0 4:0 32 0] [20 0] 0 0
r 3.474645093 _0_ RTR  --- 35 tcp 1540 [0 0 0 0] ------- [0:0 4:0 32 0] [20 0] 0 0
s 3.474645093 _0_ RTR  --- 34 tcp 1540 [0 0 0 0] ------- [0:0 4:0 30 2] [19 0] 0 0
s 3.474645093 _0_ RTR  --- 35 tcp 1540 [0 0 0 0] ------- [0:0 4:0 30 2] [20 0] 0 0
r 3.476611175 _0_ AGT  --- 25 ack 40 [13a 0 2 800] ------- [4:0 0:0 29 0] [10 0] 2 0
s 3.476611175 _0_ AGT  --- 36 tcp 1540 [0 0 0 0] ------- [0:0 4:0 32 0] [21 0] 0 0
r 3.476611175 _0_ RTR  --- 36 tcp 1540 [0 0 0 0] ------- [0:0 4:0 32 0] [21 0] 0 0
s 3.476611175 _0_ AGT  --- 37 tcp 1540 [0 0 0 0] ------- [0:0 4:0 32 0] [22 0] 0 0
r 3.476611175 _0_ RTR  --- 37 tcp 1540 [0 0 0 0] ------- [0:0 4:0 32 0] [22 0] 0 0
s 3.476611175 _0_ RTR  --- 36 tcp 1540 [0 0 0 0] ------- [0:0 4:0 30 2] [21 0] 0 0
s 3.476611175 _0_ RTR  --- 37 tcp 1540 [0 0 0 0] ------- [0:0 4:0 30 2] [22 0] 0 0
r 3.490476736 _2_ RTR  --- 31 tcp 1540 [13a 2 0 800] ------- [0:0 4:0 30 2] [16 0] 1 0
f 3.490476736 _2_ RTR  --- 31 tcp 1540 [13a 2 0 800] ------- [0:0 4:0 29 4] [16 0] 1 0
r 3.492413643 _2_ RTR  --- 29 ack 40 [13a 2 4 800] ------- [4:0 0:0 30 2] [14 0] 1 0
f 3.492413643 _2_ RTR  --- 29 ack 40 [13a 2 4 800] ------- [4:0 0:0 29 0] [14 0] 1 0
r 3.494459205 _0_ AGT  --- 26 ack 40 [13a 0 2 800] ------- [4:0 0:0 29 0] [11 0] 2 0
s 3.494459205 _0_ AGT  --- 38 tcp 1540 [0 0 0 0] ------- [0:0 4:0 32 0] [23 0] 0 0
r 3.494459205 _0_ RTR  --- 38 tcp 1540 [0 0 0 0] ------- [0:0 4:0 32 0] [23 0] 0 0
s 3.494459205 _0_ AGT  --- 39 tcp 1540 [0 0 0 0] ------- [0:0 4:0 32 0] [24 0] 0 0
r 3.494459205 _0_ RTR  --- 39 tcp 1540 [0 0 0 0] ------- [0:0 4:0 32 0] [24 0] 0 0
s 3.494459205 _0_ RTR  --- 38 tcp 1540 [0 0 0 0] ------- [0:0 4:0 30 2] [23 0] 0 0
s 3.494459205 _0_ RTR  --- 39 tcp 1540 [0 0 0 0] ------- [0:0 4:0 30 2] [24 0] 0 0
r 3.508344767 _2_ RTR  --- 32 tcp 1540 [13a 2 0 800] ------- [0:0 4:0 30 2] [17 0] 1 0
f 3.508344767 _2_ RTR  --- 32 tcp 1540 [13a 2 0 800] ------- [0:0 4:0 29 4] [17 0] 1 0
r 3.522490851 _2_ RTR  --- 33 tcp 1540 [13a 2 0 800] ------- [0:0 4:0 30 2] [18 0] 1 0
f 3.522490851 _2_ RTR  --- 33 tcp 1540 [13a 2 0 800] ------- [0:0 4:0 29 4] [18 0] 1 0
r 3.524436414 _0_ AGT  --- 27 ack 40 [13a 0 2 800] ------- [4:0 0:0 29 0] [12 0] 2 0
s 3.524436414 _0_ AGT  --- 40 tcp 1540 [0 0 0 0] ------- [0:0 4:0 32 0] [25 0] 0 0
r 3.524436414 _0_ RTR  --- 40 tcp 1540 [0 0 0 0] ------- [0:0 4:0 32 0] [25 0] 0 0
s 3.524436414 _0_ AGT  --- 41 tcp 1540 [0 0 0 0] ------- [0:0 4:0 32 0] [26 0] 0 0
r 3.524436414 _0_ RTR  --- 41 tcp 1540 [0 0 0 0] ------- [0:0 4:0 32 0] [26 0] 0 0
s 3.524436414 _0_ RTR  --- 40 tcp 1540 [0 0 0 0] ------- [0:0 4:0 30 2] [25 0] 0 0
s 3.524436414 _0_ RTR  --- 41 tcp 1540 [0 0 0 0] ------- [0:0 4:0 30 2] [26 0] 0 0
r 3.526282498 _0_ AGT  --- 28 ack 40 [13a 0 2 800] ------- [4:0 0:0 29 0] [13 0] 2 0
s 3.526282498 _0_ AGT  --- 42 tcp 1540 [0 0 0 0] ------- [0:0 4:0 32 0] [27 0] 0 0
r 3.526282498 _0_ RTR  --- 42 tcp 1540 [0 0 0 0] ------- [0:0 4:0 32 0] [27 0] 0 0
s 3.526282498 _0_ AGT  --- 43 tcp 1540 [0 0 0 0] ------- [0:0 4:0 32 0] [28 0] 0 0
r 3.526282498 _0_ RTR  --- 43 tcp 1540 [0 0 0 0] ------- [0:0 4:0 32 0] [28 0] 0 0
s 3.526282498 _0_ RTR  --- 42 tcp 1540 [0 0 0 0] ------- [0:0 4:0 30 2] [27 0] 0 0
s 3.526282498 _0_ RTR  --- 43 tcp 1540 [0 0 0 0] ------- [0:0 4:0 30 2] [28 0] 0 0
r 3.540128061 _2_ RTR  --- 34 tcp 1540 [13a 2 0 800] ------- [0:0 4:0 30 2] [19 0] 1 0
f 3.540128061 _2_ RTR  --- 34 tcp 1540 [13a 2 0 800] ------- [0:0 4:0 29 4] [19 0] 1 0
r 3.554054146 _2_ RTR  --- 35 tcp 1540 [13a 2 0 800] ------- [0:0 4:0 30 2] [20 0] 1 0
f 3.554054146 _2_ RTR  --- 35 tcp 1540 [13a 2 0 800] ------- [0:0 4:0 29 4] [20 0] 1 0
r 3.567880231 _2_ RTR  --- 36 tcp 1540 [13a 2 0 800] ------- [0:0 4:0 30 2] [21 0] 1 0
f 3.567880231 _2_ RTR  --- 36 tcp 1540 [13a 2 0 800] ------- [0:0 4:0 29 4] [21 0] 1 0
r 3.581766317 _2_ RTR  --- 37 tcp 1540 [13a 2 0 800] ------- [0:0 4:0 30 2] [22 0] 1 0
f 3.581766317 _2_ RTR  --- 37 tcp 1540 [13a 2 0 800] ------- [0:0 4:0 29 4] [22 0] 1 0
r 3.595672725 _4_ AGT  --- 30 tcp 1540 [13a 4 2 800] ------- [0:0 4:0 29 4] [15 0] 2 0
s 3.595672725 _4_ AGT  --- 44 ack 40 [0 0 0 0] ------- [4:0 0:0 32 0] [15 0] 0 0
r 3.595672725 _4_ RTR  --- 44 ack 40 [0 0 0 0] ------- [4:0 0:0 32 0] [15 0] 0 0
s 3.595672725 _4_ RTR  --- 44 ack 40 [0 0 0 0] ------- [4:0 0:0 30 2] [15 0] 0 0
r 3.609919935 _4_ AGT  --- 31 tcp 1540 [13a 4 2 800] ------- [0:0 4:0 29 4] [16 0] 2 0
s 3.609919935 _4_ AGT  --- 45 ack 40 [0 0 0 0] ------- [4:0 0:0 32 0] [16 0] 0 0
r 3.609919935 _4_ RTR  --- 45 ack 40 [0 0 0 0] ------- [4:0 0:0 32 0] [16 0] 0 0
s 3.609919935 _4_ RTR  --- 45 ack 40 [0 0 0 0] ------- [4:0 0:0 30 2] [16 0] 0 0
r 3.611766303 _0_ AGT  --- 29 ack 40 [13a 0 2 800] ------- [4:0 0:0 29 0] [14 0] 2 0
s 3.611766303 _0_ AGT  --- 46 tcp 1540 [0 0 0 0] ------- [0:0 4:0 32 0] [29 0] 0 0
r 3.611766303 _0_ RTR  --- 46 tcp 1540 [0 0 0 0] ------- [0:0 4:0 32 0] [29 0] 0 0
s 3.611766303 _0_ AGT  --- 47 tcp 1540 [0 0 0 0] ------- [0:0 4:0 32 0] [30 0] 0 0
r 3.611766303 _0_ RTR  --- 47 tcp 1540 [0 0 0 0] ------- [0:0 4:0 32 0] [30 0] 0 0
s 3.611766303 _0_ RTR  --- 46 tcp 1540 [0 0 0 0] ------- [0:0 4:0 30 2] [29 0] 0 0
s 3.611766303 _0_ RTR  --- 47 tcp 1540 [0 0 0 0] ------- [0:0 4:0 30 2] [30 0] 0 0
r 3.625613232 _4_ AGT  --- 32 tcp 1540 [13a 4 2 800] ------- [0:0 4:0 29 4] [17 0] 2 0
s 3.625613232 _4_ AGT  --- 48 ack 40 [0 0 0 0] ------- [4:0 0:0 32 0] [17 0] 0 0
r 3.625613232 _4_ RTR  --- 48 ack 40 [0 0 0 0] ------- [4:0 0:0 32 0] [17 0] 0 0
s 3.625613232 _4_ RTR  --- 48 ack 40 [0 0 0 0] ------- [4:0 0:0 30 2] [17 0] 0 0
r 3.639500440 _4_ AGT  --- 33 tcp 1540 [13a 4 2 800] ------- [0:0 4:0 29 4] [18 0] 2 0
s 3.639500440 _4_ AGT  --- 49 ack 40 [0 0 0 0] ------- [4:0 0:0 32 0] [18 0] 0 0
r 3.639500440 _4_ RTR  --- 49 ack 40 [0 0 0 0] ------- [4:0 0:0 32 0] [18 0] 0 0
s 3.639500440 _4_ RTR  --- 49 ack 40 [0 0 0 0] ------- [4:0 0:0 30 2] [18 0] 0 0
r 3.641426845 _2_ RTR  --- 44 ack 40 [13a 2 4 800] ------- [4:0 0:0 30 2] [15 0] 1 0
f 3.641426845 _2_ RTR  --- 44 ack 40 [13a 2 4 800] ------- [4:0 0:0 29 0] [15 0] 1 0
r 3.643274052 _2_ RTR  --- 45 ack 40 [13a 2 4 800] ------- [4:0 0:0 30 2] [16 0] 1 0
f 3.643274052 _2_ RTR  --- 45 ack 40 [13a 2 4 800] ------- [4:0 0:0 29 0] [16 0] 1 0
r 3.645121259 _2_ RTR  --- 48 ack 40 [13a 2 4 800] ------- [4:0 0:0 30 2] [17 0] 1 0
f 3.645121259 _2_ RTR  --- 48 ack 40 [13a 2 4 800] ------- [4:0 0:0 29 0] [17 0] 1 0
r 3.659087664 _4_ AGT  --- 34 tcp 1540 [13a 4 2 800] ------- [0:0 4:0 29 4] [19 0] 2 0
s 3.659087664 _4_ AGT  --- 50 ack 40 [0 0 0 0] ------- [4:0 0:0 32 0] [19 0] 0 0
r 3.659087664 _4_ RTR  --- 50 ack 40 [0 0 0 0] ------- [4:0 0:0 32 0] [19 0] 0 0
s 3.659087664 _4_ RTR  --- 50 ack 40 [0 0 0 0] ------- [4:0 0:0 30 2] [19 0] 0 0
r 3.661174069 _2_ RTR  --- 49 ack 40 [13a 2 4 800] ------- [4:0 0:0 30 2] [18 0] 1 0
f 3.661174069 _2_ RTR  --- 49 ack 40 [13a 2 4 800] ------- [4:0 0:0 29 0] [18 0] 1 0
r 3.675200473 _4_ AGT  --- 35 tcp 1540 [13a 4 2 800] ------- [0:0 4:0 29 4] [20 0] 2 0
s 3.675200473 _4_ AGT  --- 51 ack 40 [0 0 0 0] ------- [4:0 0:0 32 0] [20 0] 0 0
r 3.675200473 _4_ RTR  --- 51 ack 40 [0 0 0 0] ------- [4:0 0:0 32 0] [20 0] 0 0
s 3.675200473 _4_ RTR  --- 51 ack 40 [0 0 0 0] ------- [4:0 0:0 30 2] [20 0] 0 0
r 3.677226877 _2_ RTR  --- 50 ack 40 [13a 2 4 800] ------- [4:0 0:0 30 2] [19 0] 1 0
f 3.677226877 _2_ RTR  --- 50 ack 40 [13a 2 4 800] ------- [4:0 0:0 29 0] [19 0] 1 0
r 3.691262656 _2_ RTR  --- 38 tcp 1540 [13a 2 0 800] ------- [0:0 4:0 30 2] [23 0] 1 0
f 3.691262656 _2_ RTR  --- 38 tcp 1540 [13a 2 0 800] ------- [0:0 4:0 29 4] [23 0] 1 0
r 3.705189059 _4_ AGT  --- 36 tcp 1540 [13a 4 2 800] ------- [0:0 4:0 29 4] [21 0] 2 0
s 3.705189059 _4_ AGT  --- 52 ack 40 [0 0 0 0] ------- [4:0 0:0 32 0] [21 0] 0 0
r 3.705189059 _4_ RTR  --- 52 ack 40 [0 0 0 0] ------- [4:0 0:0 32 0] [21 0] 0 0
s 3.705189059 _4_ RTR  --- 52 ack 40 [0 0 0 0] ------- [4:0 0:0 30 2] [21 0] 0 0
r 3.707095461 _2_ RTR  --- 51 ack 40 [13a 2 4 800] ------- [4:0 0:0 30 2] [20 0] 1 0
f 3.707095461 _2_ RTR  --- 51 ack 40 [13a 2 4 800] ------- [4:0 0:0 29 0] [20 0] 1 0
r 3.721051241 _2_ RTR  --- 39 tcp 1540 [13a 2 0 800] ------- [0:0 4:0 30 2] [24 0] 1 0
f 3.721051241 _2_ RTR  --- 39 tcp 1540 [13a 2 0 800] ------- [0:0 4:0 29 4] [24 0] 1 0
r 3.722988131 _2_ RTR  --- 52 ack 40 [13a 2 4 800] ------- [4:0 0:0 30 2] [21 0] 1 0
f 3.722988131 _2_ RTR  --- 52 ack 40 [13a 2 4 800] ------- [4:0 0:0 29 0] [21 0] 1 0
r 3.736903912 _2_ RTR  --- 40 tcp 1540 [13a 2 0 800] ------- [0:0 4:0 30 2] [25 0] 1 0
f 3.736903912 _2_ RTR  --- 40 tcp 1540 [13a 2 0 800] ------- [0:0 4:0 29 4] [25 0] 1 0
r 3.750730005 _2_ RTR  --- 41 tcp 1540 [13a 2 0 800] ------- [0:0 4:0 30 2] [26 0] 1 0
f 3.750730005 _2_ RTR  --- 41 tcp 1540 [13a 2 0 800] ------- [0:0 4:0 29 4] [26 0] 1 0
r 3.764656099 _2_ RTR  --- 42 tcp 1540 [13a 2 0 800] ------- [0:0 4:0 30 2] [27 0] 1 0
f 3.764656099 _2_ RTR  --- 42 tcp 1540 [13a 2 0 800] ------- [0:0 4:0 29 4] [27 0] 1 0
r 3.778482193 _2_ RTR  --- 43 tcp 1540 [13a 2 0 800] ------- [0:0 4:0 30 2] [28 0] 1 0
f 3.778482193 _2_ RTR  --- 43 tcp 1540 [13a 2 0 800] ------- [0:0 4:0 29 4] [28 0] 1 0
r 3.792388592 _4_ AGT  --- 37 tcp 1540 [13a 4 2 800] ------- [0:0 4:0 29 4] [22 0] 2 0
s 3.792388592 _4_ AGT  --- 53 ack 40 [0 0 0 0] ------- [4:0 0:0 32 0] [22 0] 0 0
r 3.792388592 _4_ RTR  --- 53 ack 40 [0 0 0 0] ------- [4:0 0:0 32 0] [22 0] 0 0
s 3.792388592 _4_ RTR  --- 53 ack 40 [0 0 0 0] ------- [4:0 0:0 30 2] [22 0] 0 0
r 3.794314989 _2_ RTR  --- 53 ack 40 [13a 2 4 800] ------- [4:0 0:0 30 2] [22 0] 1 0
f 3.794314989 _2_ RTR  --- 53 ack 40 [13a 2 4 800] ------- [4:0 0:0 29 0] [22 0] 1 0
r 3.796620561 _0_ AGT  --- 44 ack 40 [13a 0 2 800] ------- [4:0 0:0 29 0] [15 0] 2 0
s 3.796620561 _0_ AGT  --- 54 tcp 1540 [0 0 0 0] ------- [0:0 4:0 32 0] [31 0] 0 0
r 3.796620561 _0_ RTR  --- 54 tcp 1540 [0 0 0 0] ------- [0:0 4:0 32 0] [31 0] 0 0
s 3.796620561 _0_ AGT  --- 55 tcp 1540 [0 0 0 0] ------- [0:0 4:0 32 0] [32 0] 0 0
r 3.796620561 _0_ RTR  --- 55 tcp 1540 [0 0 0 0] ------- [0:0 4:0 32 0] [32 0] 0 0
s 3.796620561 _0_ RTR  --- 54 tcp 1540 [0 0 0 0] ------- [0:0 4:0 30 2] [31 0] 0 0
s 3.796620561 _0_ RTR  --- 55 tcp 1540 [0 0 0 0] ------- [0:0 4:0 30 2] [32 0] 0 0
r 3.810486133 _2_ RTR  --- 46 tcp 1540 [13a 2 0 800] ------- [0:0 4:0 30 2] [29 0] 1 0
f 3.810486133 _2_ RTR  --- 46 tcp 1540 [13a 2 0 800] ------- [0:0 4:0 29 4] [29 0] 1 0
r 3.824532229 _2_ RTR  --- 47 tcp 1540 [13a 2 0 800] ------- [0:0 4:0 30 2] [30 0] 1 0