M 1.00000 0 (502.00, 897.00, 0.00), (597.00, 208.00), 5.00
M 1.00000 1 (691.00, 299.00, 0.00), (262.00, 419.00), 10.00
M 1.00000 2 (234.00, 368.00, 0.00), (30.00, 33.00), 9.00
M 1.00000 3 (355.00, 416.00, 0.00), (90.00, 953.00), 6.00
M 1.00000 4 (503.00, 696.00, 0.00), (222.00, 994.00), 4.00
s 1.000000000 _0_ AGT  --- 0 tcp 40 [0 0 0 0] ------- [0:0 4:0 32 0] [0 0] 0 0
r 1.000000000 _0_ RTR  --- 0 tcp 40 [0 0 0 0] ------- [0:0 4:0 32 0] [0 0] 0 0
s 1.000000000 _0_ RTR  --- 0 AODV 48 [0 0 0 0] ------- [0:255 -1:255 30 0] [0x2 1 1 [4 0] [0 4]] (REQUEST)
r 1.000988670 _4_ RTR  --- 0 AODV 48 [0 ffffffff 0 800] ------- [0:255 -1:255 30 0] [0x2 1 1 [4 0] [0 4]] (REQUEST)
s 1.000988670 _4_ RTR  --- 0 AODV 44 [0 0 0 0] ------- [4:255 0:255 30 0] [0x4 1 [4 4] 10.000000] (REPLY)
r 1.005651359 _0_ RTR  --- 0 AODV 44 [13a 0 4 800] ------- [4:255 0:255 30 0] [0x4 1 [4 4] 10.000000] (REPLY)
s 1.005651359 _0_ RTR  --- 0 tcp 40 [0 0 0 0] ------- [0:0 4:0 30 4] [0 0] 0 0
r 1.007637369 _4_ AGT  --- 0 tcp 40 [13a 4 0 800] ------- [0:0 4:0 30 4] [0 0] 1 0
s 1.007637369 _4_ AGT  --- 1 ack 40 [0 0 0 0] ------- [4:0 0:0 32 0] [0 0] 0 0
r 1.007637369 _4_ RTR  --- 1 ack 40 [0 0 0 0] ------- [4:0 0:0 32 0] [0 0] 0 0
s 1.007637369 _4_ RTR  --- 1 ack 40 [0 0 0 0] ------- [4:0 0:0 30 0] [0 0] 0 0
r 1.009523378 _0_ AGT  --- 1 ack 40 [13a 0 4 800] ------- [4:0 0:0 30 0] [0 0] 1 0
s 1.009523378 _0_ AGT  --- 2 tcp 1540 [0 0 0 0] ------- [0:0 4:0 32 0] [1 0] 0 0
r 1.009523378 _0_ RTR  --- 2 tcp 1540 [0 0 0 0] ------- [0:0 4:0 32 0] [1 0] 0 0
s 1.009523378 _0_ AGT  --- 3 tcp 1540 [0 0 0 0] ------- [0:0 4:0 32 0] [2 0] 0 0
r 1.009523378 _0_ RTR  --- 3 tcp 1540 [0 0 0 0] ------- [0:0 4:0 32 0] [2 0] 0 0
s 1.009523378 _0_ RTR  --- 2 tcp 1540 [0 0 0 0] ------- [0:0 4:0 30 4] [1 0] 0 0
s 1.009523378 _0_ RTR  --- 3 tcp 1540 [0 0 0 0] ------- [0:0 4:0 30 4] [2 0] 0 0
r 1.023549388 _4_ AGT  --- 2 tcp 1540 [13a 4 0 800] ------- [0:0 4:0 30 4] [1 0] 1 0
s 1.023549388 _4_ AGT  --- 4 ack 40 [0 0 0 0] ------- [4:0 0:0 32 0] [1 0] 0 0
r 1.023549388 _4_ RTR  --- 4 ack 40 [0 0 0 0] ------- [4:0 0:0 32 0] [1 0] 0 0
s 1.023549388 _4_ RTR  --- 4 ack 40 [0 0 0 0] ------- [4:0 0:0 30 0] [1 0] 0 0
r 1.025555396 _0_ AGT  --- 4 ack 40 [13a 0 4 800] ------- [4:0 0:0 30 0] [1 0] 1 0
s 1.025555396 _0_ AGT  --- 5 tcp 1540 [0 0 0 0] ------- [0:0 4:0 32 0] [3 0] 0 0
r 1.025555396 _0_ RTR  --- 5 tcp 1540 [0 0 0 0] ------- [0:0 4:0 32 0] [3 0] 0 0
s 1.025555396 _0_ AGT  --- 6 tcp 1540 [0 0 0 0] ------- [0:0 4:0 32 0] [4 0] 0 0
r 1.025555396 _0_ RTR  --- 6 tcp 1540 [0 0 0 0] ------- [0:0 4:0 32 0] [4 0] 0 0
s 1.025555396 _0_ RTR  --- 5 tcp 1540 [0 0 0 0] ------- [0:0 4:0 30 4] [3 0] 0 0
s 1.025555396 _0_ RTR  --- 6 tcp 1540 [0 0 0 0] ------- [0:0 4:0 30 4] [4 0] 0 0
r 1.039481404 _4_ AGT  --- 3 tcp 1540 [13a 4 0 800] ------- [0:0 4:0 30 4] [2 0] 1 0
s 1.039481404 _4_ AGT  --- 7 ack 40 [0 0 0 0] ------- [4:0 0:0 32 0] [2 0] 0 0
r 1.039481404 _4_ RTR  --- 7 ack 40 [0 0 0 0] ------- [4:0 0:0 32 0] [2 0] 0 0
s 1.039481404 _4_ RTR  --- 7 ack 40 [0 0 0 0] ------- [4:0 0:0 30 0] [2 0] 0 0
r 1.053348079 _4_ AGT  --- 5 tcp 1540 [13a 4 0 800] ------- [0:0 4:0 30 4] [3 0] 1 0
s 1.053348079 _4_ AGT  --- 8 ack 40 [0 0 0 0] ------- [4:0 0:0 32 0] [3 0] 0 0
r 1.053348079 _4_ RTR  --- 8 ack 40 [0 0 0 0] ------- [4:0 0:0 32 0] [3 0] 0 0
s 1.053348079 _4_ RTR  --- 8 ack 40 [0 0 0 0] ------- [4:0 0:0 30 0] [3 0] 0 0
r 1.055294085 _0_ AGT  --- 7 ack 40 [13a 0 4 800] ------- [4:0 0:0 30 0] [2 0] 1 0
s 1.055294085 _0_ AGT  --- 9 tcp 1540 [0 0 0 0] ------- [0:0 4:0 32 0] [5 0] 0 0
r 1.055294085 _0_ RTR  --- 9 tcp 1540 [0 0 0 0] ------- [0:0 4:0 32 0] [5 0] 0 0
s 1.055294085 _0_ AGT  --- 10 tcp 1540 [0 0 0 0] ------- [0:0 4:0 32 0] [6 0] 0 0
r 1.055294085 _0_ RTR  --- 10 tcp 1540 [0 0 0 0] ------- [0:0 4:0 32 0] [6 0] 0 0
s 1.055294085 _0_ RTR  --- 9 tcp 1540 [0 0 0 0] ------- [0:0 4:0 30 4] [5 0] 0 0
s 1.055294085 _0_ RTR  --- 10 tcp 1540 [0 0 0 0] ------- [0:0 4:0 30 4] [6 0] 0 0
r 1.057280759 _0_ AGT  --- 8 ack 40 [13a 0 4 800] ------- [4:0 0:0 30 0] [3 0] 1 0
s 1.057280759 _0_ AGT  --- 11 tcp 1540 [0 0 0 0] ------- [0:0 4:0 32 0] [7 0] 0 0
r 1.057280759 _0_ RTR  --- 11 tcp 1540 [0 0 0 0] ------- [0:0 4:0 32 0] [7 0] 0 0
s 1.057280759 _0_ AGT  --- 12 tcp 1540 [0 0 0 0] ------- [0:0 4:0 32 0] [8 0] 0 0
r 1.057280759 _0_ RTR  --- 12 tcp 1540 [0 0 0 0] ------- [0:0 4:0 32 0] [8 0] 0 0
s 1.057280759 _0_ RTR  --- 11 tcp 1540 [0 0 0 0] ------- [0:0 4:0 30 4] [7 0] 0 0
s 1.057280759 _0_ RTR  --- 12 tcp 1540 [0 0 0 0] ------- [0:0 4:0 30 4] [8 0] 0 0
r 1.071386765 _4_ AGT  --- 6 tcp 1540 [13a 4 0 800] ------- [0:0 4:0 30 4] [4 0] 1 0
s 1.071386765 _4_ AGT  --- 13 ack 40 [0 0 0 0] ------- [4:0 0:0 32 0] [4 0] 0 0
r 1.071386765 _4_ RTR  --- 13 ack 40 [0 0 0 0] ------- [4:0 0:0 32 0] [4 0] 0 0
s 1.071386765 _4_ RTR  --- 13 ack 40 [0 0 0 0] ------- [4:0 0:0 30 0] [4 0] 0 0
r 1.073312769 _0_ AGT  --- 13 ack 40 [13a 0 4 800] ------- [4:0 0:0 30 0] [4 0] 1 0
s 1.073312769 _0_ AGT  --- 14 tcp 1540 [0 0 0 0] ------- [0:0 4:0 32 0] [9 0] 0 0
r 1.073312769 _0_ RTR  --- 14 tcp 1540 [0 0 0 0] ------- [0:0 4:0 32 0] [9 0] 0 0
s 1.073312769 _0_ AGT  --- 15 tcp 1540 [0 0 0 0] ------- [0:0 4:0 32 0] [10 0] 0 0
r 1.073312769 _0_ RTR  --- 15 tcp 1540 [0 0 0 0] ------- [0:0 4:0 32 0] [10 0] 0 0
s 1.073312769 _0_ RTR  --- 14 tcp 1540 [0 0 0 0] ------- [0:0 4:0 30 4] [9 0] 0 0
s 1.073312769 _0_ RTR  --- 15 tcp 1540 [0 0 0 0] ------- [0:0 4:0 30 4] [10 0] 0 0
r 1.087298773 _4_ AGT  --- 9 tcp 1540 [13a 4 0 800] ------- [0:0 4:0 30 4] [5 0] 1 0
s 1.087298773 _4_ AGT  --- 16 ack 40 [0 0 0 0] ------- [4:0 0:0 32 0] [5 0] 0 0
r 1.087298773 _4_ RTR  --- 16 ack 40 [0 0 0 0] ------- [4:0 0:0 32 0] [5 0] 0 0
s 1.087298773 _4_ RTR  --- 16 ack 40 [0 0 0 0] ------- [4:0 0:0 30 0] [5 0] 0 0
r 1.089144776 _0_ AGT  --- 16 ack 40 [13a 0 4 800] ------- [4:0 0:0 30 0] [5 0] 1 0
s 1.089144776 _0_ AGT  --- 17 tcp 1540 [0 0 0 0] ------- [0:0 4:0 32 0] [11 0] 0 0
r 1.089144776 _0_ RTR  --- 17 tcp 1540 [0 0 0 0] ------- [0:0 4:0 32 0] [11 0] 0 0
s 1.089144776 _0_ AGT  --- 18 tcp 1540 [0 0 0 0] ------- [0:0 4:0 32 0] [12 0] 0 0
r 1.089144776 _0_ RTR  --- 18 tcp 1540 [0 0 0 0] ------- [0:0 4:0 32 0] [12 0] 0 0
s 1.089144776 _0_ RTR  --- 17 tcp 1540 [0 0 0 0] ------- [0:0 4:0 30 4] [11 0] 0 0
s 1.089144776 _0_ RTR  --- 18 tcp 1540 [0 0 0 0] ------- [0:0 4:0 30 4] [12 0] 0 0
r 1.103450779 _4_ AGT  --- 10 tcp 1540 [13a 4 0 800] ------- [0:0 4:0 30 4] [6 0] 1 0
s 1.103450779 _4_ AGT  --- 19 ack 40 [0 0 0 0] ------- [4:0 0:0 32 0] [6 0] 0 0
r 1.103450779 _4_ RTR  --- 19 ack 40 [0 0 0 0] ------- [4:0 0:0 32 0] [6 0] 0 0
s 1.103450779 _4_ RTR  --- 19 ack 40 [0 0 0 0] ------- [4:0 0:0 30 0] [6 0] 0 0
r 1.117477448 _4_ AGT  --- 11 tcp 1540 [13a 4 0 800] ------- [0:0 4:0 30 4] [7 0] 1 0
s 1.117477448 _4_ AGT  --- 20 ack 40 [0 0 0 0] ------- [4:0 0:0 32 0] [7 0] 0 0
r 1.117477448 _4_ RTR  --- 20 ack 40 [0 0 0 0] ------- [4:0 0:0 32 0] [7 0] 0 0
s 1.117477448 _4_ RTR  --- 20 ack 40 [0 0 0 0] ------- [4:0 0:0 30 0] [7 0] 0 0
r 1.119423449 _0_ AGT  --- 19 ack 40 [13a 0 4 800] ------- [4:0 0:0 30 0] [6 0] 1 0
s 1.119423449 _0_ AGT  --- 21 tcp 1540 [0 0 0 0] ------- [0:0 4:0 32 0] [13 0] 0 0
r 1.119423449 _0_ RTR  --- 21 tcp 1540 [0 0 0 0] ------- [0:0 4:0 32 0] [13 0] 0 0
s 1.119423449 _0_ AGT  --- 22 tcp 1540 [0 0 0 0] ------- [0:0 4:0 32 0] [14 0] 0 0
r 1.119423449 _0_ RTR  --- 22 tcp 1540 [0 0 0 0] ------- [0:0 4:0 32 0] [14 0] 0 0
s 1.119423449 _0_ RTR  --- 21 tcp 1540 [0 0 0 0] ------- [0:0 4:0 30 4] [13 0] 0 0
s 1.119423449 _0_ RTR  --- 22 tcp 1540 [0 0 0 0] ------- [0:0 4:0 30 4] [14 0] 0 0
r 1.121270117 _0_ AGT  --- 20 ack 40 [13a 0 4 800] ------- [4:0 0:0 30 0] [7 0] 1 0
s 1.121270117 _0_ AGT  --- 23 tcp 1540 [0 0 0 0] ------- [0:0 4:0 32 0] [15 0] 0 0
r 1.121270117 _0_ RTR  --- 23 tcp 1540 [0 0 0 0] ------- [0:0 4:0 32 0] [15 0] 0 0
s 1.121270117 _0_ AGT  --- 24 tcp 1540 [0 0 0 0] ------- [0:0 4:0 32 0] [16 0] 0 0
r 1.121270117 _0_ RTR  --- 24 tcp 1540 [0 0 0 0] ------- [0:0 4:0 32 0] [16 0] 0 0
s 1.121270117 _0_ RTR  --- 23 tcp 1540 [0 0 0 0] ------- [0:0 4:0 30 4] [15 0] 0 0
s 1.121270117 _0_ RTR  --- 24 tcp 1540 [0 0 0 0] ------- [0:0 4:0 30 4] [16 0] 0 0
r 1.135196117 _4_ AGT  --- 12 tcp 1540 [13a 4 0 800] ------- [0:0 4:0 30 4] [8 0] 1 0
s 1.135196117 _4_ AGT  --- 25 ack 40 [0 0 0 0] ------- [4:0 0:0 32 0] [8 0] 0 0
r 1.135196117 _4_ RTR  --- 25 ack 40 [0 0 0 0] ------- [4:0 0:0 32 0] [8 0] 0 0
s 1.135196117 _4_ RTR  --- 25 ack 40 [0 0 0 0] ------- [4:0 0:0 30 0] [8 0] 0 0
r 1.137182116 _0_ AGT  --- 25 ack 40 [13a 0 4 800] ------- [4:0 0:0 30 0] [8 0] 1 0
s 1.137182116 _0_ AGT  --- 26 tcp 1540 [0 0 0 0] ------- [0:0 4:0 32 0] [17 0] 0 0
r 1.137182116 _0_ RTR  --- 26 tcp 1540 [0 0 0 0] ------- [0:0 4:0 32 0] [17 0] 0 0
s 1.137182116 _0_ AGT  --- 27 tcp 1540 [0 0 0 0] ------- [0:0 4:0 32 0] [18 0] 0 0
r 1.137182116 _0_ RTR  --- 27 tcp 1540 [0 0 0 0] ------- [0:0 4:0 32 0] [18 0] 0 0
s 1.137182116 _0_ RTR  --- 26 tcp 1540 [0 0 0 0] ------- [0:0 4:0 30 4] [17 0] 0 0
s 1.137182116 _0_ RTR  --- 27 tcp 1540 [0 0 0 0] ------- [0:0 4:0 30 4] [18 0] 0 0
r 1.151308115 _4_ AGT  --- 14 tcp 1540 [13a 4 0 800] ------- [0:0 4:0 30 4] [9 0] 1 0
s 1.151308115 _4_ AGT  --- 28 ack 40 [0 0 0 0] ------- [4:0 0:0 32 0] [9 0] 0 0
r 1.151308115 _4_ RTR  --- 28 ack 40 [0 0 0 0] ------- [4:0 0:0 32 0] [9 0] 0 0
s 1.151308115 _4_ RTR  --- 28 ack 40 [0 0 0 0] ------- [4:0 0:0 30 0] [9 0] 0 0
r 1.165534779 _4_ AGT  --- 15 tcp 1540 [13a 4 0 800] ------- [0:0 4:0 30 4] [10 0] 1 0
s 1.165534779 _4_ AGT  --- 29 ack 40 [0 0 0 0] ------- [4:0 0:0 32 0] [10 0] 0 0
r 1.165534779 _4_ RTR  --- 29 ack 40 [0 0 0 0] ------- [4:0 0:0 32 0] [10 0] 0 0
s 1.165534779 _4_ RTR  --- 29 ack 40 [0 0 0 0] ------- [4:0 0:0 30 0] [10 0] 0 0
r 1.167540776 _0_ AGT  --- 28 ack 40 [13a 0 4 800] ------- [4:0 0:0 30 0] [9 0] 1 0
s 1.167540776 _0_ AGT  --- 30 tcp 1540 [0 0 0 0] ------- [0:0 4:0 32 0] [19 0] 0 0
r 1.167540776 _0_ RTR  --- 30 tcp 1540 [0 0 0 0] ------- [0:0 4:0 32 0] [19 0] 0 0
s 1.167540776 _0_ AGT  --- 31 tcp 1540 [0 0 0 0] ------- [0:0 4:0 32 0] [20 0] 0 0
r 1.167540776 _0_ RTR  --- 31 tcp 1540 [0 0 0 0] ------- [0:0 4:0 32 0] [20 0] 0 0
s 1.167540776 _0_ RTR  --- 30 tcp 1540 [0 0 0 0] ------- [0:0 4:0 30 4] [19 0] 0 0
s 1.167540776 _0_ RTR  --- 31 tcp 1540 [0 0 0 0] ------- [0:0 4:0 30 4] [20 0] 0 0
r 1.169727439 _0_ AGT  --- 29 ack 40 [13a 0 4 800] ------- [4:0 0:0 30 0] [10 0] 1 0
s 1.169727439 _0_ AGT  --- 32 tcp 1540 [0 0 0 0] ------- [0:0 4:0 32 0] [21 0] 0 0
r 1.169727439 _0_ RTR  --- 32 tcp 1540 [0 0 0 0] ------- [0:0 4:0 32 0] [21 0] 0 0
s 1.169727439 _0_ AGT  --- 33 tcp 1540 [0 0 0 0] ------- [0:0 4:0 32 0] [22 0] 0 0
r 1.169727439 _0_ RTR  --- 33 tcp 1540 [0 0 0 0] ------- [0:0 4:0 32 0] [22 0] 0 0
s 1.169727439 _0_ RTR  --- 32 tcp 1540 [0 0 0 0] ------- [0:0 4:0 30 4] [21 0] 0 0
s 1.169727439 _0_ RTR  --- 33 tcp 1540 [0 0 0 0] ------- [0:0 4:0 30 4] [22 0] 0 0
r 1.183573435 _4_ AGT  --- 17 tcp 1540 [13a 4 0 800] ------- [0:0 4:0 30 4] [11 0] 1 0
s 1.183573435 _4_ AGT  --- 34 ack 40 [0 0 0 0] ------- [4:0 0:0 32 0] [11 0] 0 0
r 1.183573435 _4_ RTR  --- 34 ack 40 [0 0 0 0] ------- [4:0 0:0 32 0] [11 0] 0 0
s 1.183573435 _4_ RTR  --- 34 ack 40 [0 0 0 0] ------- [4:0 0:0 30 0] [11 0] 0 0
r 1.185439431 _0_ AGT  --- 34 ack 40 [13a 0 4 800] ------- [4:0 0:0 30 0] [11 0] 1 0
s 1.185439431 _0_ AGT  --- 35 tcp 1540 [0 0 0 0] ------- [0:0 4:0 32 0] [23 0] 0 0
r 1.185439431 _0_ RTR  --- 35 tcp 1540 [0 0 0 0] ------- [0:0 4:0 32 0] [23 0] 0 0
s 1.185439431 _0_ AGT  --- 36 tcp 1540 [0 0 0 0] ------- [0:0 4:0 32 0] [24 0] 0 0
r 1.185439431 _0_ RTR  --- 36 tcp 1540 [0 0 0 0] ------- [0:0 4:0 32 0] [24 0] 0 0
s 1.185439431 _0_ RTR  --- 35 tcp 1540 [0 0 0 0] ------- [0:0 4:0 30 4] [23 0] 0 0
s 1.185439431 _0_ RTR  --- 36 tcp 1540 [0 0 0 0] ------- [0:0 4:0 30 4] [24 0] 0 0
r 1.199545426 _4_ AGT  --- 18 tcp 1540 [13a 4 0 800] ------- [0:0 4:0 30 4] [12 0] 1 0
s 1.199545426 _4_ AGT  --- 37 ack 40 [0 0 0 0] ------- [4:0 0:0 32 0] [12 0] 0 0
r 1.199545426 _4_ RTR  --- 37 ack 40 [0 0 0 0] ------- [4:0 0:0 32 0] [12 0] 0 0
s 1.199545426 _4_ RTR  --- 37 ack 40 [0 0 0 0] ------- [4:0 0:0 30 0] [12 0] 0 0
r 1.201471420 _0_ AGT  --- 37 ack 40 [13a 0 4 800] ------- [4:0 0:0 30 0] [12 0] 1 0
s 1.201471420 _0_ AGT  --- 38 tcp 1540 [0 0 0 0] ------- [0:0 4:0 32 0] [25 0] 0 0
r 1.201471420 _0_ RTR  --- 38 tcp 1540 [0 0 0 0] ------- [0:0 4:0 32 0] [25 0] 0 0
s 1.201471420 _0_ AGT  --- 39 tcp 1540 [0 0 0 0] ------- [0:0 4:0 32 0] [26 0] 0 0
r 1.201471420 _0_ RTR  --- 39 tcp 1540 [0 0 0 0] ------- [0:0 4:0 32 0] [26 0] 0 0
s 1.201471420 _0_ RTR  --- 38 tcp 1540 [0 0 0 0] ------- [0:0 4:0 30 4] [25 0] 0 0
s 1.201471420 _0_ RTR  --- 39 tcp 1540 [0 0 0 0] ------- [0:0 4:0 30 4] [26 0] 0 0
r 1.215357415 _4_ AGT  --- 21 tcp 1540 [13a 4 0 800] ------- [0:0 4:0 30 4] [13 0] 1 0
s 1.215357415 _4_ AGT  --- 40 ack 40 [0 0 0 0] ------- [4:0 0:0 32 0] [13 0] 0 0
r 1.215357415 _4_ RTR  --- 40 ack 40 [0 0 0 0] ------- [4:0 0:0 32 0] [13 0] 0 0
s 1.215357415 _4_ RTR  --- 40 ack 40 [0 0 0 0] ------- [4:0 0:0 30 0] [13 0] 0 0
r 1.217223408 _0_ AGT  --- 40 ack 40 [13a 0 4 800] ------- [4:0 0:0 30 0] [13 0] 1 0
s 1.217223408 _0_ AGT  --- 41 tcp 1540 [0 0 0 0] ------- [0:0 4:0 32 0] [27 0] 0 0
r 1.217223408 _0_ RTR  --- 41 tcp 1540 [0 0 0 0] ------- [0:0 4:0 32 0] [27 0] 0 0
s 1.217223408 _0_ AGT  --- 42 tcp 1540 [0 0 0 0] ------- [0:0 4:0 32 0] [28 0] 0 0
r 1.217223408 _0_ RTR  --- 42 tcp 1540 [0 0 0 0] ------- [0:0 4:0 32 0] [28 0] 0 0
s 1.217223408 _0_ RTR  --- 41 tcp 1540 [0 0 0 0] ------- [0:0 4:0 30 4] [27 0] 0 0
s 1.217223408 _0_ RTR  --- 42 tcp 1540 [0 0 0 0] ------- [0:0 4:0 30 4] [28 0] 0 0
r 1.231309400 _4_ AGT  --- 22 tcp 1540 [13a 4 0 800] ------- [0:0 4:0 30 4] [14 0] 1 0
s 1.231309400 _4_ AGT  --- 43 ack 40 [0 0 0 0] ------- [4:0 0:0 32 0] [14 0] 0 0
r 1.231309400 _4_ RTR  --- 43 ack 40 [0 0 0 0] ------- [4:0 0:0 32 0] [14 0] 0 0
s 1.231309400 _4_ RTR  --- 43 ack 40 [0 0 0 0] ------- [4:0 0:0 30 0] [14 0] 0 0
r 1.233235392 _0_ AGT  --- 43 ack 40 [13a 0 4 800] ------- [4:0 0:0 30 0] [14 0] 1 0
s 1.233235392 _0_ AGT  --- 44 tcp 1540 [0 0 0 0] ------- [0:0 4:0 32 0] [29 0] 0 0
r 1.233235392 _0_ RTR  --- 44 tcp 1540 [0 0 0 0] ------- [0:0 4:0 32 0] [29 0] 0 0
s 1.233235392 _0_ AGT  --- 45 tcp 1540 [0 0 0 0] ------- [0:0 4:0 32 0] [30 0] 0 0
r 1.233235392 _0_ RTR  --- 45 tcp 1540 [0 0 0 0] ------- [0:0 4:0 32 0] [30 0] 0 0
s 1.233235392 _0_ RTR  --- 44 tcp 1540 [0 0 0 0] ------- [0:0 4:0 30 4] [29 0] 0 0
s 1.233235392 _0_ RTR  --- 45 tcp 1540 [0 0 0 0] ------- [0:0 4:0 30 4] [30 0] 0 0
r 1.247501384 _4_ AGT  --- 23 tcp 1540 [13a 4 0 800] ------- [0:0 4:0 30 4] [15 0] 1 0
s 1.247501384 _4_ AGT  --- 46 ack 40 [0 0 0 0] ------- [4:0 0:0 32 0] [15 0] 0 0
r 1.247501384 _4_ RTR  --- 46 ack 40 [0 0 0 0] ------- [4:0 0:0 32 0] [15 0] 0 0
s 1.247501384 _4_ RTR  --- 46 ack 40 [0 0 0 0] ------- [4:0 0:0 30 0] [15 0] 0 0
r 1.249527374 _0_ AGT  --- 46 ack 40 [13a 0 4 800] ------- [4:0 0:0 30 0] [15 0] 1 0
s 1.249527374 _0_ AGT  --- 47 tcp 1540 [0 0 0 0] ------- [0:0 4:0 32 0] [31 0] 0 0
r 1.249527374 _0_ RTR  --- 47 tcp 1540 [0 0 0 0] ------- [0:0 4:0 32 0] [31 0] 0 0
s 1.249527374 _0_ AGT  --- 48 tcp 1540 [0 0 0 0] ------- [0:0 4:0 32 0] [32 0] 0 0
r 1.249527374 _0_ RTR  --- 48 tcp 1540 [0 0 0 0] ------- [0:0 4:0 32 0] [32 0] 0 0
s 1.249527374 _0_ RTR  --- 47 tcp 1540 [0 0 0 0] ------- [0:0 4:0 30 4] [31 0] 0 0
s 1.249527374 _0_ RTR  --- 48 tcp 1540 [0 0 0 0] ------- [0:0 4:0 30 4] [32 0] 0 0
r 1.263753364 _4_ AGT  --- 24 tcp 1540 [13a 4 0 800] ------- [0:0 4:0 30 4] [16 0] 1 0
s 1.263753364 _4_ AGT  --- 49 ack 40 [0 0 0 0] ------- [4:0 0:0 32 0] [16 0] 0 0
r 1.263753364 _4_ RTR  --- 49 ack 40 [0 0 0 0] ------- [4:0 0:0 32 0] [16 0] 0 0
s 1.263753364 _4_ RTR  --- 49 ack 40 [0 0 0 0] ------- [4:0 0:0 30 0] [16 0] 0 0
r 1.265699354 _0_ AGT  --- 49 ack 40 [13a 0 4 800] ------- [4:0 0:0 30 0] [16 0] 1 0
s 1.265699354 _0_ AGT  --- 50 tcp 1540 [0 0 0 0] ------- [0:0 4:0 32 0] [33 0] 0 0
r 1.265699354 _0_ RTR  --- 50 tcp 1540 [0 0 0 0] ------- [0:0 4:0 32 0] [33 0] 0 0
s 1.265699354 _0_ AGT  --- 51 tcp 1540 [0 0 0 0] ------- [0:0 4:0 32 0] [34 0] 0 0
r 1.265699354 _0_ RTR  --- 51 tcp 1540 [0 0 0 0] ------- [0:0 4:0 32 0] [34 0] 0 0
s 1.265699354 _0_ RTR  --- 50 tcp 1540 [0 0 0 0] ------- [0:0 4:0 30 4] [33 0] 0 0
s 1.265699354 _0_ RTR  --- 51 tcp 1540 [0 0 0 0] ------- [0:0 4:0 30 4] [34 0] 0 0
r 1.279765343 _4_ AGT  --- 26 tcp 1540 [13a 4 0 800] ------- [0:0 4:0 30 4] [17 0] 1 0
s 1.279765343 _4_ AGT  --- 52 ack 40 [0 0 0 0] ------- [4:0 0:0 32 0] [17 0] 0 0
r 1.279765343 _4_ RTR  --- 52 ack 40 [0 0 0 0] ------- [4:0 0:0 32 0] [17 0] 0 0
s 1.279765343 _4_ RTR  --- 52 ack 40 [0 0 0 0] ------- [4:0 0:0 30 0] [17 0] 0 0
r 1.281871331 _0_ AGT  --- 52 ack 40 [13a 0 4 800] ------- [4:0 0:0 30 0] [17 0] 1 0
s 1.281871331 _0_ AGT  --- 53 tcp 1540 [0 0 0 0] ------- [0:0 4:0 32 0] [35 0] 0 0
r 1.281871331 _0_ RTR  --- 53 tcp 1540 [0 0 0 0] ------- [0:0 4:0 32 0] [35 0] 0 0
s 1.281871331 _0_ AGT  --- 54 tcp 1540 [0 0 0 0] ------- [0:0 4:0 32 0] [36 0] 0 0
r 1.281871331 _0_ RTR  --- 54 tcp 1540 [0 0 0 0] ------- [0:0 4:0 32 0] [36 0] 0 0
s 1.281871331 _0_ RTR  --- 53 tcp 1540 [0 0 0 0] ------- [0:0 4:0 30 4] [35 0] 0 0
s 1.281871331 _0_ RTR  --- 54 tcp 1540 [0 0 0 0] ------- [0:0 4:0 30 4] [36 0] 0 0
r 1.295717318 _4_ AGT  --- 27 tcp 1540 [13a 4 0 800] ------- [0:0 4:0 30 4] [18 0] 1 0
s 1.295717318 _4_ AGT  --- 55 ack 40 [0 0 0 0] ------- [4:0 0:0 32 0] [18 0] 0 0
r 1.295717318 _4_ RTR  --- 55 ack 40 [0 0 0 0] ------- [4:0 0:0 32 0] [18 0] 0 0
s 1.295717318 _4_ RTR  --- 55 ack 40 [0 0 0 0] ------- [4:0 0:0 30 0] [18 0] 0 0
r 1.297723305 _0_ AGT  --- 55 ack 40 [13a 0 4 800] ------- [4:0 0:0 30 0] [18 0] 1 0
s 1.297723305 _0_ AGT  --- 56 tcp 1540 [0 0 0 0] ------- [0:0 4:0 32 0] [37 0] 0 0
r 1.297723305 _0_ RTR  --- 56 tcp 1540 [0 0 0 0] ------- [0:0 4:0 32 0] [37 0] 0 0
s 1.297723305 _0_ AGT  --- 57 tcp 1540 [0 0 0 0] ------- [0:0 4:0 32 0] [38 0] 0 0
r 1.297723305 _0_ RTR  --- 57 tcp 1540 [0 0 0 0] ------- [0:0 4:0 32 0] [38 0] 0 0
s 1.297723305 _0_ RTR  --- 56 tcp 1540 [0 0 0 0] ------- [0:0 4:0 30 4] [37 0] 0 0
s 1.297723305 _0_ RTR  --- 57 tcp 1540 [0 0 0 0] ------- [0:0 4:0 30 4] [38 0] 0 0
r 1.311669292 _4_ AGT  --- 30 tcp 1540 [13a 4 0 800] ------- [0:0 4:0 30 4] [19 0] 1 0
s 1.311669292 _4_ AGT  --- 58 ack 40 [0 0 0 0] ------- [4:0 0:0 32 0] [19 0] 0 0
r 1.311669292 _4_ RTR  --- 58 ack 40 [0 0 0 0] ------- [4:0 0:0 32 0] [19 0] 0 0
s 1.311669292 _4_ RTR  --- 58 ack 40 [0 0 0 0] ------- [4:0 0:0 30 0] [19 0] 0 0
r 1.325495939 _4_ AGT  --- 31 tcp 1540 [13a 4 0 800] ------- [0:0 4:0 30 4] [20 0] 1 0
s 1.325495939 _4_ AGT  --- 59 ack 40 [0 0 0 0] ------- [4:0 0:0 32 0] [20 0] 0 0
r 1.325495939 _4_ RTR  --- 59 ack 40 [0 0 0 0] ------- [4:0 0:0 32 0] [20 0] 0 0
s 1.325495939 _4_ RTR  --- 59 ack 40 [0 0 0 0] ------- [4:0 0:0 30 0] [20 0] 0 0
r 1.339542585 _4_ AGT  --- 32 tcp 1540 [13a 4 0 800] ------- [0:0 4:0 30 4] [21 0] 1 0
s 1.339542585 _4_ AGT  --- 60 ack 40 [0 0 0 0] ------- [4:0 0:0 32 0] [21 0] 0 0
r 1.339542585 _4_ RTR  --- 60 ack 40 [0 0 0 0] ------- [4:0 0:0 32 0] [21 0] 0 0
s 1.339542585 _4_ RTR  --- 60 ack 40 [0 0 0 0] ------- [4:0 0:0 30 0] [21 0] 0 0
r 1.341528568 _0_ AGT  --- 58 ack 40 [13a 0 4 800] ------- [4:0 0:0 30 0] [19 0] 1 0
s 1.341528568 _0_ AGT  --- 61 tcp 1540 [0 0 0 0] ------- [0:0 4:0 32 0] [39 0] 0 0
r 1.341528568 _0_ RTR  --- 61 tcp 1540 [0 0 0 0] ------- [0:0 4:0 32 0] [39 0] 0 0
s 1.341528568 _0_ RTR  --- 61 tcp 1540 [0 0 0 0] ------- [0:0 4:0 30 4] [39 0] 0 0
r 1.343515212 _0_ AGT  --- 59 ack 40 [13a 0 4 800] ------- [4:0 0:0 30 0] [20 0] 1 0
s 1.343515212 _0_ AGT  --- 62 tcp 1540 [0 0 0 0] ------- [0:0 4:0 32 0] [40 0] 0 0
r 1.343515212 _0_ RTR  --- 62 tcp 1540 [0 0 0 0] ------- [0:0 4:0 32 0] [40 0] 0 0
s 1.343515212 _0_ RTR  --- 62 tcp 1540 [0 0 0 0] ------- [0:0 4:0 30 4] [40 0] 0 0
r 1.357361195 _4_ AGT  --- 33 tcp 1540 [13a 4 0 800] ------- [0:0 4:0 30 4] [22 0] 1 0
s 1.357361195 _4_ AGT  --- 63 ack 40 [0 0 0 0] ------- [4:0 0:0 32 0] [22 0] 0 0
r 1.357361195 _4_ RTR  --- 63 ack 40 [0 0 0 0] ------- [4:0 0:0 32 0] [22 0] 0 0
s 1.357361195 _4_ RTR  --- 63 ack 40 [0 0 0 0] ------- [4:0 0:0 30 0] [22 0] 0 0
r 1.371267837 _4_ AGT  --- 35 tcp 1540 [13a 4 0 800] ------- [0:0 4:0 30 4] [23 0] 1 0
s 1.371267837 _4_ AGT  --- 64 ack 40 [0 0 0 0] ------- [4:0 0:0 32 0] [23 0] 0 0
r 1.371267837 _4_ RTR  --- 64 ack 40 [0 0 0 0] ------- [4:0 0:0 32 0] [23 0] 0 0
s 1.371267837 _4_ RTR  --- 64 ack 40 [0 0 0 0] ------- [4:0 0:0 30 0] [23 0] 0 0
r 1.373233818 _0_ AGT  --- 60 ack 40 [13a 0 4 800] ------- [4:0 0:0 30 0] [21 0] 1 0
s 1.373233818 _0_ AGT  --- 65 tcp 1540 [0 0 0 0] ------- [0:0 4:0 32 0] [41 0] 0 0
r 1.373233818 _0_ RTR  --- 65 tcp 1540 [0 0 0 0] ------- [0:0 4:0 32 0] [41 0] 0 0
s 1.373233818 _0_ RTR  --- 65 tcp 1540 [0 0 0 0] ------- [0:0 4:0 30 4] [41 0] 0 0
r 1.375060459 _0_ AGT  --- 63 ack 40 [13a 0 4 800] ------- [4:0 0:0 30 0] [22 0] 1 0
s 1.375060459 _0_ AGT  --- 66 tcp 1540 [0 0 0 0] ------- [0:0 4:0 32 0] [42 0] 0 0
r 1.375060459 _0_ RTR  --- 66 tcp 1540 [0 0 0 0] ------- [0:0 4:0 32 0] [42 0] 0 0
s 1.375060459 _0_ RTR  --- 66 tcp 1540 [0 0 0 0] ------- [0:0 4:0 30 4] [42 0] 0 0
r 1.389066439 _4_ AGT  --- 36 tcp 1540 [13a 4 0 800] ------- [0:0 4:0 30 4] [24 0] 1 0
s 1.389066439 _4_ AGT  --- 67 ack 40 [0 0 0 0] ------- [4:0 0:0 32 0] [24 0] 0 0
r 1.389066439 _4_ RTR  --- 67 ack 40 [0 0 0 0] ------- [4:0 0:0 32 0] [24 0] 0 0
s 1.389066439 _4_ RTR  --- 67 ack 40 [0 0 0 0] ------- [4:0 0:0 30 0] [24 0] 0 0
r 1.390972419 _0_ AGT  --- 64 ack 40 [13a 0 4 800] ------- [4:0 0:0 30 0] [23 0] 1 0
s 1.390972419 _0_ AGT  --- 68 tcp 1540 [0 0 0 0] ------- [0:0 4:0 32 0] [43 0] 0 0
r 1.390972419 _0_ RTR  --- 68 tcp 1540 [0 0 0 0] ------- [0:0 4:0 32 0] [43 0] 0 0
s 1.390972419 _0_ RTR  --- 68 tcp 1540 [0 0 0 0] ------- [0:0 4:0 30 4] [43 0] 0 0
r 1.405038398 _4_ AGT  --- 38 tcp 1540 [13a 4 0 800] ------- [0:0 4:0 30 4] [25 0] 1 0
s 1.405038398 _4_ AGT  --- 69 ack 40 [0 0 0 0] ------- [4:0 0:0 32 0] [25 0] 0 0
r 1.405038398 _4_ RTR  --- 69 ack 40 [0 0 0 0] ------- [4:0 0:0 32 0] [25 0] 0 0
s 1.405038398 _4_ RTR  --- 69 ack 40 [0 0 0 0] ------- [4:0 0:0 30 0] [25 0] 0 0
r 1.418885036 _4_ AGT  --- 39 tcp 1540 [13a 4 0 800] ------- [0:0 4:0 30 4] [26 0] 1 0
s 1.418885036 _4_ AGT  --- 70 ack 40 [0 0 0 0] ------- [4:0 0:0 32 0] [26 0] 0 0
r 1.418885036 _4_ RTR  --- 70 ack 40 [0 0 0 0] ------- [4:0 0:0 32 0] [26 0] 0 0
s 1.418885036 _4_ RTR  --- 70 ack 40 [0 0 0 0] ------- [4:0 0:0 30 0] [26 0] 0 0
r 1.420751013 _0_ AGT  --- 67 ack 40 [13a 0 4 800] ------- [4:0 0:0 30 0] [24 0] 1 0
s 1.420751013 _0_ AGT  --- 71 tcp 1540 [0 0 0 0] ------- [0:0 4:0 32 0] [44 0] 0 0
r 1.420751013 _0_ RTR  --- 71 tcp 1540 [0 0 0 0] ------- [0:0 4:0 32 0] [44 0] 0 0
s 1.420751013 _0_ RTR  --- 71 tcp 1540 [0 0 0 0] ------- [0:0 4:0 30 4] [44 0] 0 0
r 1.422817648 _0_ AGT  --- 69 ack 40 [13a 0 4 800] ------- [4:0 0:0 30 0] [25 0] 1 0
s 1.422817648 _0_ AGT  --- 72 tcp 1540 [0 0 0 0] ------- [0:0 4:0 32 0] [45 0] 0 0
r 1.422817648 _0_ RTR  --- 72 tcp 1540 [0 0 0 0] ------- [0:0 4:0 32 0] [45 0] 0 0
s 1.422817648 _0_ RTR  --- 72 tcp 1540 [0 0 0 0] ------- [0:0 4:0 30 4] [45 0] 0 0
r 1.424764284 _0_ AGT  --- 70 ack 40 [13a 0 4 800] ------- [4:0 0:0 30 0] [26 0] 1 0
s 1.424764284 _0_ AGT  --- 73 tcp 1540 [0 0 0 0] ------- [0:0 4:0 32 0] [46 0] 0 0
r 1.424764284 _0_ RTR  --- 73 tcp 1540 [0 0 0 0] ------- [0:0 4:0 32 0] [46 0] 0 0
s 1.424764284 _0_ RTR  --- 73 tcp 1540 [0 0 0 0] ------- [0:0 4:0 30 4] [46 0] 0 0
r 1.438690260 _4_ AGT  --- 41 tcp 1540 [13a 4 0 800] ------- [0:0 4:0 30 4] [27 0] 1 0
s 1.438690260 _4_ AGT  --- 74 ack 40 [0 0 0 0] ------- [4:0 0:0 32 0] [27 0] 0 0
r 1.438690260 _4_ RTR  --- 74 ack 40 [0 0 0 0] ------- [4:0 0:0 32 0] [27 0] 0 0
s 1.438690260 _4_ RTR  --- 74 ack 40 [0 0 0 0] ------- [4:0 0:0 30 0] [27 0] 0 0
r 1.452556894 _4_ AGT  --- 42 tcp 1540 [13a 4 0 800] ------- [0:0 4:0 30 4] [28 0] 1 0
s 1.452556894 _4_ AGT  --- 75 ack 40 [0 0 0 0] ------- [4:0 0:0 32 0] [28 0] 0 0
r 1.452556894 _4_ RTR  --- 75 ack 40 [0 0 0 0] ------- [4:0 0:0 32 0] [28 0] 0 0
s 1.452556894 _4_ RTR  --- 75 ack 40 [0 0 0 0] ------- [4:0 0:0 30 0] [28 0] 0 0
r 1.454562869 _0_ AGT  --- 74 ack 40 [13a 0 4 800] ------- [4:0 0:0 30 0] [27 0] 1 0
s 1.454562869 _0_ AGT  --- 76 tcp 1540 [0 0 0 0] ------- [0:0 4:0 32 0] [47 0] 0 0
r 1.454562869 _0_ RTR  --- 76 tcp 1540 [0 0 0 0] ------- [0:0 4:0 32 0] [47 0] 0 0
s 1.454562869 _0_ RTR  --- 76 tcp 1540 [0 0 0 0] ------- [0:0 4:0 30 4] [47 0] 0 0
r 1.456509501 _0_ AGT  --- 75 ack 40 [13a 0 4 800] ------- [4:0 0:0 30 0] [28 0] 1 0
s 1.456509501 _0_ AGT  --- 77 tcp 1540 [0 0 0 0] ------- [0:0 4:0 32 0] [48 0] 0 0
r 1.456509501 _0_ RTR  --- 77 tcp 1540 [0 0 0 0] ------- [0:0 4:0 32 0] [48 0] 0 0
s 1.456509501 _0_ RTR  --- 77 tcp 1540 [0 0 0 0] ------- [0:0 4:0 30 4] [48 0] 0 0
r 1.470515475 _4_ AGT  --- 44 tcp 1540 [13a 4 0 800] ------- [0:0 4:0 30 4] [29 0] 1 0
s 1.470515475 _4_ AGT  --- 78 ack 40 [0 0 0 0] ------- [4:0 0:0 32 0] [29 0] 0 0
r 1.470515475 _4_ RTR  --- 78 ack 40 [0 0 0 0] ------- [4:0 0:0 32 0] [29 0] 0 0
s 1.470515475 _4_ RTR  --- 78 ack 40 [0 0 0 0] ------- [4:0 0:0 30 0] [29 0] 0 0
r 1.472381448 _0_ AGT  --- 78 ack 40 [13a 0 4 800] ------- [4:0 0:0 30 0] [29 0] 1 0
s 1.472381448 _0_ AGT  --- 79 tcp 1540 [0 0 0 0] ------- [0:0 4:0 32 0] [49 0] 0 0
r 1.472381448 _0_ RTR  --- 79 tcp 1540 [0 0 0 0] ------- [0:0 4:0 32 0] [49 0] 0 0
s 1.472381448 _0_ RTR  --- 79 tcp 1540 [0 0 0 0] ------- [0:0 4:0 30 4] [49 0] 0 0
r 1.486287421 _4_ AGT  --- 45 tcp 1540 [13a 4 0 800] ------- [0:0 4:0 30 4] [30 0] 1 0
s 1.486287421 _4_ AGT  --- 80 ack 40 [0 0 0 0] ------- [4:0 0:0 32 0] [30 0] 0 0
r 1.486287421 _4_ RTR  --- 80 ack 40 [0 0 0 0] ------- [4:0 0:0 32 0] [30 0] 0 0
s 1.486287421 _4_ RTR  --- 80 ack 40 [0 0 0 0] ------- [4:0 0:0 30 0] [30 0] 0 0
r 1.488133393 _0_ AGT  --- 80 ack 40 [13a 0 4 800] ------- [4:0 0:0 30 0] [30 0] 1 0
s 1.488133393 _0_ AGT  --- 81 tcp 1540 [0 0 0 0] ------- [0:0 4:0 32 0] [50 0] 0 0
r 1.488133393 _0_ RTR  --- 81 tcp 1540 [0 0 0 0] ------- [0:0 4:0 32 0] [50 0] 0 0
s 1.488133393 _0_ RTR  --- 81 tcp 1540 [0 0 0 0] ------- [0:0 4:0 30 4] [50 0] 0 0
r 1.502219364 _4_ AGT  --- 47 tcp 1540 [13a 4 0 800] ------- [0:0 4:0 30 4] [31 0] 1 0
s 1.502219364 _4_ AGT  --- 82 ack 40 [0 0 0 0] ------- [4:0 0:0 32 0] [31 0] 0 0
r 1.502219364 _4_ RTR  --- 82 ack 40 [0 0 0 0] ------- [4:0 0:0 32 0] [31 0] 0 0
s 1.502219364 _4_ RTR  --- 82 ack 40 [0 0 0 0] ------- [4:0 0:0 30 0] [31 0] 0 0
r 1.504105335 _0_ AGT  --- 82 ack 40 [13a 0 4 800] ------- [4:0 0:0 30 0] [31 0] 1 0
s 1.504105335 _0_ AGT  --- 83 tcp 1540 [0 0 0 0] ------- [0:0 4:0 32 0] [51 0] 0 0
r 1.504105335 _0_ RTR  --- 83 tcp 1540 [0 0 0 0] ------- [0:0 4:0 32 0] [51 0] 0 0
s 1.504105335 _0_ RTR  --- 83 tcp 1540 [0 0 0 0] ------- [0:0 4:0 30 4] [51 0] 0 0
r 1.518231305 _4_ AGT  --- 48 tcp 1540 [13a 4 0 800] ------- [0:0 4:0 30 4] [32 0] 1 0
s 1.518231305 _4_ AGT  --- 84 ack 40 [0 0 0 0] ------- [4:0 0:0 32 0] [32 0] 0 0
r 1.518231305 _4_ RTR  --- 84 ack 40 [0 0 0 0] ------- [4:0 0:0 32 0] [32 0] 0 0
s 1.518231305 _4_ RTR  --- 84 ack 40 [0 0 0 0] ------- [4:0 0:0 30 0] [32 0] 0 0
r 1.532177931 _4_ AGT  --- 50 tcp 1540 [13a 4 0 800] ------- [0:0 4:0 30 4] [33 0] 1 0
s 1.532177931 _4_ AGT  --- 85 ack 40 [0 0 0 0] ------- [4:0 0:0 32 0] [33 0] 0 0
r 1.532177931 _4_ RTR  --- 85 ack 40 [0 0 0 0] ------- [4:0 0:0 32 0] [33 0] 0 0
s 1.532177931 _4_ RTR  --- 85 ack 40 [0 0 0 0] ------- [4:0 0:0 30 0] [33 0] 0 0
r 1.546064555 _4_ AGT  --- 51 tcp 1540 [13a 4 0 800] ------- [0:0 4:0 30 4] [34 0] 1 0
s 1.546064555 _4_ AGT  --- 86 ack 40 [0 0 0 0] ------- [4:0 0:0 32 0] [34 0] 0 0
r 1.546064555 _4_ RTR  --- 86 ack 40 [0 0 0 0] ------- [4:0 0:0 32 0] [34 0] 0 0
s 1.546064555 _4_ RTR  --- 86 ack 40 [0 0 0 0] ------- [4:0 0:0 30 0] [34 0] 0 0
r 1.548030522 _0_ AGT  --- 84 ack 40 [13a 0 4 800] ------- [4:0 0:0 30 0] [32 0] 1 0
s 1.548030522 _0_ AGT  --- 87 tcp 1540 [0 0 0 0] ------- [0:0 4:0 32 0] [52 0] 0 0
r 1.548030522 _0_ RTR  --- 87 tcp 1540 [0 0 0 0] ------- [0:0 4:0 32 0] [52 0] 0 0
s 1.548030522 _0_ RTR  --- 87 tcp 1540 [0 0 0 0] ------- [0:0 4:0 30 4] [52 0] 0 0
r 1.549977144 _0_ AGT  --- 85 ack 40 [13a 0 4 800] ------- [4:0 0:0 30 0] [33 0] 1 0
s 1.549977144 _0_ AGT  --- 88 tcp 1540 [0 0 0 0] ------- [0:0 4:0 32 0] [53 0] 0 0
r 1.549977144 _0_ RTR  --- 88 tcp 1540 [0 0 0 0] ------- [0:0 4:0 32 0] [53 0] 0 0
s 1.549977144 _0_ RTR  --- 88 tcp 1540 [0 0 0 0] ------- [0:0 4:0 30 4] [53 0] 0 0
r 1.564143111 _4_ AGT  --- 53 tcp 1540 [13a 4 0 800] ------- [0:0 4:0 30 4] [35 0] 1 0
s 1.564143111 _4_ AGT  --- 89 ack 40 [0 0 0 0] ------- [4:0 0:0 32 0] [35 0] 0 0
r 1.564143111 _4_ RTR  --- 89 ack 40 [0 0 0 0] ------- [4:0 0:0 32 0] [35 0] 0 0
s 1.564143111 _4_ RTR  --- 89 ack 40 [0 0 0 0] ------- [4:0 0:0 30 0] [35 0] 0 0
r 1.566249077 _0_ AGT  --- 86 ack 40 [13a 0 4 800] ------- [4:0 0:0 30 0] [34 0] 1 0
s 1.566249077 _0_ AGT  --- 90 tcp 1540 [0 0 0 0] ------- [0:0 4:0 32 0] [54 0] 0 0
r 1.566249077 _0_ RTR  --- 90 tcp 1540 [0 0 0 0] ------- [0:0 4:0 32 0] [54 0] 0 0
s 1.566249077 _0_ RTR  --- 90 tcp 1540 [0 0 0 0] ------- [0:0 4:0 30 4] [54 0] 0 0
r 1.580255042 _4_ AGT  --- 54 tcp 1540 [13a 4 0 800] ------- [0:0 4:0 30 4] [36 0] 1 0
s 1.580255042 _4_ AGT  --- 91 ack 40 [0 0 0 0] ------- [4:0 0:0 32 0] [36 0] 0 0
r 1.580255042 _4_ RTR  --- 91 ack 40 [0 0 0 0] ------- [4:0 0:0 32 0] [36 0] 0 0
s 1.580255042 _4_ RTR  --- 91 ack 40 [0 0 0 0] ------- [4:0 0:0 30 0] [36 0] 0 0
r 1.594381661 _4_ AGT  --- 56 tcp 1540 [13a 4 0 800] ------- [0:0 4:0 30 4] [37 0] 1 0
s 1.594381661 _4_ AGT  --- 92 ack 40 [0 0 0 0] ------- [4:0 0:0 32 0] [37 0] 0 0
r 1.594381661 _4_ RTR  --- 92 ack 40 [0 0 0 0] ------- [4:0 0:0 32 0] [37 0] 0 0
s 1.594381661 _4_ RTR  --- 92 ack 40 [0 0 0 0] ------- [4:0 0:0 30 0] [37 0] 0 0
r 1.596287624 _0_ AGT  --- 89 ack 40 [13a 0 4 800] ------- [4:0 0:0 30 0] [35 0] 1 0
s 1.596287624 _0_ AGT  --- 93 tcp 1540 [0 0 0 0] ------- [0:0 4:0 32 0] [55 0] 0 0