r 1.021171809 _21_ RTR  --- 0 AODV 48 [0 ffffffff 12 800] ------- [18:255 -1:255 28 0] [0x2 3 1 [4 0] [0 4]] (REQUEST)
r 1.021171817 _16_ RTR  --- 0 AODV 48 [0 ffffffff 12 800] ------- [18:255 -1:255 28 0] [0x2 3 1 [4 0] [0 4]] (REQUEST)
r 1.023109288 _14_ RTR  --- 1 ack 40 [13a e 4 800] ------- [4:0 0:0 30 14] [0 0] 1 0
f 1.023109288 _14_ RTR  --- 1 ack 40 [13a e 4 800] ------- [4:0 0:0 29 0] [0 0] 1 0
r 1.025234145 _0_ AGT  --- 1 ack 40 [13a 0 e 800] ------- [4:0 0:0 29 0] [0 0] 2 0
s 1.025234145 _0_ AGT  --- 2 tcp 1540 [0 0 0 0] ------- [0:0 4:0 32 0] [1 0] 0 0
r 1.025234145 _0_ RTR  --- 2 tcp 1540 [0 0 0 0] ------- [0:0 4:0 32 0] [1 0] 0 0
s 1.025234145 _0_ AGT  --- 3 tcp 1540 [0 0 0 0] ------- [0:0 4:0 32 0] [2 0] 0 0
r 1.025234145 _0_ RTR  --- 3 tcp 1540 [0 0 0 0] ------- [0:0 4:0 32 0] [2 0] 0 0
s 1.025234145 _0_ RTR  --- 2 tcp 1540 [0 0 0 0] ------- [0:0 4:0 30 14] [1 0] 0 0
s 1.025234145 _0_ RTR  --- 3 tcp 1540 [0 0 0 0] ------- [0:0 4:0 30 14] [2 0] 0 0
s 1.025959823 _15_ RTR  --- 0 AODV 48 [0 ffffffff 9 800] ------- [15:255 -1:255 28 0] [0x2 3 1 [4 0] [0 4]] (REQUEST)
r 1.039199002 _14_ RTR  --- 2 tcp 1540 [13a e 0 800] ------- [0:0 4:0 30 14] [1 0] 1 0
f 1.039199002 _14_ RTR  --- 2 tcp 1540 [13a e 0 800] ------- [0:0 4:0 29 4] [1 0] 1 0
r 1.053124144 _14_ RTR  --- 3 tcp 1540 [13a e 0 800] ------- [0:0 4:0 30 14] [2 0] 1 0
f 1.053124144 _14_ RTR  --- 3 tcp 1540 [13a e 0 800] ------- [0:0 4:0 29 4] [2 0] 1 0
r 1.067050516 _4_ AGT  --- 2 tcp 1540 [13a 4 e 800] ------- [0:0 4:0 29 4] [1 0] 2 0
s 1.067050516 _4_ AGT  --- 4 ack 40 [0 0 0 0] ------- [4:0 0:0 32 0] [1 0] 0 0
r 1.067050516 _4_ RTR  --- 4 ack 40 [0 0 0 0] ------- [4:0 0:0 32 0] [1 0] 0 0
s 1.067050516 _4_ RTR  --- 4 ack 40 [0 0 0 0] ------- [4:0 0:0 30 14] [1 0] 0 0
r 1.081077680 _4_ AGT  --- 3 tcp 1540 [13a 4 e 800] ------- [0:0 4:0 29 4] [2 0] 2 0
s 1.081077680 _4_ AGT  --- 5 ack 40 [0 0 0 0] ------- [4:0 0:0 32 0] [2 0] 0 0
r 1.081077680 _4_ RTR  --- 5 ack 40 [0 0 0 0] ------- [4:0 0:0 32 0] [2 0] 0 0
s 1.081077680 _4_ RTR  --- 5 ack 40 [0 0 0 0] ------- [4:0 0:0 30 14] [2 0] 0 0
r 1.082924053 _14_ RTR  --- 4 ack 40 [13a e 4 800] ------- [4:0 0:0 30 14] [1 0] 1 0
f 1.082924053 _14_ RTR  --- 4 ack 40 [13a e 4 800] ------- [4:0 0:0 29 0] [1 0] 1 0
r 1.084811217 _14_ RTR  --- 5 ack 40 [13a e 4 800] ------- [4:0 0:0 30 14] [2 0] 1 0
f 1.084811217 _14_ RTR  --- 5 ack 40 [13a e 4 800] ------- [4:0 0:0 29 0] [2 0] 1 0
r 1.087136075 _0_ AGT  --- 4 ack 40 [13a 0 e 800] ------- [4:0 0:0 29 0] [1 0] 2 0
s 1.087136075 _0_ AGT  --- 6 tcp 1540 [0 0 0 0] ------- [0:0 4:0 32 0] [3 0] 0 0
r 1.087136075 _0_ RTR  --- 6 tcp 1540 [0 0 0 0] ------- [0:0 4:0 32 0] [3 0] 0 0
s 1.087136075 _0_ AGT  --- 7 tcp 1540 [0 0 0 0] ------- [0:0 4:0 32 0] [4 0] 0 0
r 1.087136075 _0_ RTR  --- 7 tcp 1540 [0 0 0 0] ------- [0:0 4:0 32 0] [4 0] 0 0
s 1.087136075 _0_ RTR  --- 6 tcp 1540 [0 0 0 0] ------- [0:0 4:0 30 14] [3 0] 0 0
s 1.087136075 _0_ RTR  --- 7 tcp 1540 [0 0 0 0] ------- [0:0 4:0 30 14] [4 0] 0 0
r 1.101300933 _14_ RTR  --- 6 tcp 1540 [13a e 0 800] ------- [0:0 4:0 30 14] [3 0] 1 0
f 1.101300933 _14_ RTR  --- 6 tcp 1540 [13a e 0 800] ------- [0:0 4:0 29 4] [3 0] 1 0
r 1.103285792 _0_ AGT  --- 5 ack 40 [13a 0 e 800] ------- [4:0 0:0 29 0] [2 0] 2 0
s 1.103285792 _0_ AGT  --- 8 tcp 1540 [0 0 0 0] ------- [0:0 4:0 32 0] [5 0] 0 0
r 1.103285792 _0_ RTR  --- 8 tcp 1540 [0 0 0 0] ------- [0:0 4:0 32 0] [5 0] 0 0
s 1.103285792 _0_ AGT  --- 9 tcp 1540 [0 0 0 0] ------- [0:0 4:0 32 0] [6 0] 0 0
r 1.103285792 _0_ RTR  --- 9 tcp 1540 [0 0 0 0] ------- [0:0 4:0 32 0] [6 0] 0 0
s 1.103285792 _0_ RTR  --- 8 tcp 1540 [0 0 0 0] ------- [0:0 4:0 30 14] [5 0] 0 0
s 1.103285792 _0_ RTR  --- 9 tcp 1540 [0 0 0 0] ------- [0:0 4:0 30 14] [6 0] 0 0
r 1.117230651 _14_ RTR  --- 7 tcp 1540 [13a e 0 800] ------- [0:0 4:0 30 14] [4 0] 1 0
f 1.117230651 _14_ RTR  --- 7 tcp 1540 [13a e 0 800] ------- [0:0 4:0 29 4] [4 0] 1 0
r 1.131117025 _4_ AGT  --- 6 tcp 1540 [13a 4 e 800] ------- [0:0 4:0 29 4] [3 0] 2 0
s 1.131117025 _4_ AGT  --- 10 ack 40 [0 0 0 0] ------- [4:0 0:0 32 0] [3 0] 0 0
r 1.131117025 _4_ RTR  --- 10 ack 40 [0 0 0 0] ------- [4:0 0:0 32 0] [3 0] 0 0
s 1.131117025 _4_ RTR  --- 10 ack 40 [0 0 0 0] ------- [4:0 0:0 30 14] [3 0] 0 0
r 1.144944191 _4_ AGT  --- 7 tcp 1540 [13a 4 e 800] ------- [0:0 4:0 29 4] [4 0] 2 0
s 1.144944191 _4_ AGT  --- 11 ack 40 [0 0 0 0] ------- [4:0 0:0 32 0] [4 0] 0 0
r 1.144944191 _4_ RTR  --- 11 ack 40 [0 0 0 0] ------- [4:0 0:0 32 0] [4 0] 0 0
s 1.144944191 _4_ RTR  --- 11 ack 40 [0 0 0 0] ------- [4:0 0:0 30 14] [4 0] 0 0
r 1.146226872 _3_ RTR  --- 0 AODV 48 [0 ffffffff f 800] ------- [15:255 -1:255 28 0] [0x2 3 1 [4 0] [0 4]] (REQUEST)
r 1.146226949 _4_ RTR  --- 0 AODV 48 [0 ffffffff f 800] ------- [15:255 -1:255 28 0] [0x2 3 1 [4 0] [0 4]] (REQUEST)
r 1.146227314 _9_ RTR  --- 0 AODV 48 [0 ffffffff f 800] ------- [15:255 -1:255 28 0] [0x2 3 1 [4 0] [0 4]] (REQUEST)
r 1.148159324 _14_ RTR  --- 10 ack 40 [13a e 4 800] ------- [4:0 0:0 30 14] [3 0] 1 0
f 1.148159324 _14_ RTR  --- 10 ack 40 [13a e 4 800] ------- [4:0 0:0 29 0] [3 0] 1 0
r 1.150104184 _0_ AGT  --- 10 ack 40 [13a 0 e 800] ------- [4:0 0:0 29 0] [3 0] 2 0
s 1.150104184 _0_ AGT  --- 12 tcp 1540 [0 0 0 0] ------- [0:0 4:0 32 0] [7 0] 0 0
r 1.150104184 _0_ RTR  --- 12 tcp 1540 [0 0 0 0] ------- [0:0 4:0 32 0] [7 0] 0 0
s 1.150104184 _0_ AGT  --- 13 tcp 1540 [0 0 0 0] ------- [0:0 4:0 32 0] [8 0] 0 0
r 1.150104184 _0_ RTR  --- 13 tcp 1540 [0 0 0 0] ------- [0:0 4:0 32 0] [8 0] 0 0
s 1.150104184 _0_ RTR  --- 12 tcp 1540 [0 0 0 0] ------- [0:0 4:0 30 14] [7 0] 0 0
s 1.150104184 _0_ RTR  --- 13 tcp 1540 [0 0 0 0] ------- [0:0 4:0 30 14] [8 0] 0 0
s 1.151775269 _3_ RTR  --- 0 AODV 48 [0 ffffffff f 800] ------- [3:255 -1:255 27 0] [0x2 4 1 [4 0] [0 4]] (REQUEST)
r 1.164049044 _14_ RTR  --- 8 tcp 1540 [13a e 0 800] ------- [0:0 4:0 30 14] [5 0] 1 0
f 1.164049044 _14_ RTR  --- 8 tcp 1540 [13a e 0 800] ------- [0:0 4:0 29 4] [5 0] 1 0
r 1.177875420 _4_ AGT  --- 8 tcp 1540 [13a 4 e 800] ------- [0:0 4:0 29 4] [5 0] 2 0
s 1.177875420 _4_ AGT  --- 14 ack 40 [0 0 0 0] ------- [4:0 0:0 32 0] [5 0] 0 0
r 1.177875420 _4_ RTR  --- 14 ack 40 [0 0 0 0] ------- [4:0 0:0 32 0] [5 0] 0 0
s 1.177875420 _4_ RTR  --- 14 ack 40 [0 0 0 0] ------- [4:0 0:0 30 14] [5 0] 0 0
r 1.179801796 _14_ RTR  --- 11 ack 40 [13a e 4 800] ------- [4:0 0:0 30 14] [4 0] 1 0
f 1.179801796 _14_ RTR  --- 11 ack 40 [13a e 4 800] ------- [4:0 0:0 29 0] [4 0] 1 0
r 1.181826657 _0_ AGT  --- 11 ack 40 [13a 0 e 800] ------- [4:0 0:0 29 0] [4 0] 2 0
s 1.181826657 _0_ AGT  --- 15 tcp 1540 [0 0 0 0] ------- [0:0 4:0 32 0] [9 0] 0 0
r 1.181826657 _0_ RTR  --- 15 tcp 1540 [0 0 0 0] ------- [0:0 4:0 32 0] [9 0] 0 0
s 1.181826657 _0_ AGT  --- 16 tcp 1540 [0 0 0 0] ------- [0:0 4:0 32 0] [10 0] 0 0
r 1.181826657 _0_ RTR  --- 16 tcp 1540 [0 0 0 0] ------- [0:0 4:0 32 0] [10 0] 0 0
s 1.181826657 _0_ RTR  --- 15 tcp 1540 [0 0 0 0] ------- [0:0 4:0 30 14] [9 0] 0 0
s 1.181826657 _0_ RTR  --- 16 tcp 1540 [0 0 0 0] ------- [0:0 4:0 30 14] [10 0] 0 0
r 1.195751518 _14_ RTR  --- 9 tcp 1540 [13a e 0 800] ------- [0:0 4:0 30 14] [6 0] 1 0
f 1.195751518 _14_ RTR  --- 9 tcp 1540 [13a e 0 800] ------- [0:0 4:0 29 4] [6 0] 1 0
r 1.197708601 _14_ RTR  --- 14 ack 40 [13a e 4 800] ------- [4:0 0:0 30 14] [5 0] 1 0
f 1.197708601 _14_ RTR  --- 14 ack 40 [13a e 4 800] ------- [4:0 0:0 29 0] [5 0] 1 0
r 1.211703663 _14_ RTR  --- 12 tcp 1540 [13a e 0 800] ------- [0:0 4:0 30 14] [7 0] 1 0
f 1.211703663 _14_ RTR  --- 12 tcp 1540 [13a e 0 800] ------- [0:0 4:0 29 4] [7 0] 1 0
r 1.225730040 _4_ AGT  --- 9 tcp 1540 [13a 4 e 800] ------- [0:0 4:0 29 4] [6 0] 2 0
s 1.225730040 _4_ AGT  --- 17 ack 40 [0 0 0 0] ------- [4:0 0:0 32 0] [6 0] 0 0
r 1.225730040 _4_ RTR  --- 17 ack 40 [0 0 0 0] ------- [4:0 0:0 32 0] [6 0] 0 0
s 1.225730040 _4_ RTR  --- 17 ack 40 [0 0 0 0] ------- [4:0 0:0 30 14] [6 0] 0 0
r 1.227596418 _14_ RTR  --- 17 ack 40 [13a e 4 800] ------- [4:0 0:0 30 14] [6 0] 1 0
f 1.227596418 _14_ RTR  --- 17 ack 40 [13a e 4 800] ------- [4:0 0:0 29 0] [6 0] 1 0
r 1.241571480 _14_ RTR  --- 13 tcp 1540 [13a e 0 800] ------- [0:0 4:0 30 14] [8 0] 1 0
f 1.241571480 _14_ RTR  --- 13 tcp 1540 [13a e 0 800] ------- [0:0 4:0 29 4] [8 0] 1 0
r 1.255596631 _14_ RTR  --- 15 tcp 1540 [13a e 0 800] ------- [0:0 4:0 30 14] [9 0] 1 0
f 1.255596631 _14_ RTR  --- 15 tcp 1540 [13a e 0 800] ------- [0:0 4:0 29 4] [9 0] 1 0
r 1.257501494 _0_ AGT  --- 14 ack 40 [13a 0 e 800] ------- [4:0 0:0 29 0] [5 0] 2 0
s 1.257501494 _0_ AGT  --- 18 tcp 1540 [0 0 0 0] ------- [0:0 4:0 32 0] [11 0] 0 0
r 1.257501494 _0_ RTR  --- 18 tcp 1540 [0 0 0 0] ------- [0:0 4:0 32 0] [11 0] 0 0
s 1.257501494 _0_ AGT  --- 19 tcp 1540 [0 0 0 0] ------- [0:0 4:0 32 0] [12 0] 0 0
r 1.257501494 _0_ RTR  --- 19 tcp 1540 [0 0 0 0] ------- [0:0 4:0 32 0] [12 0] 0 0
s 1.257501494 _0_ RTR  --- 18 tcp 1540 [0 0 0 0] ------- [0:0 4:0 30 14] [11 0] 0 0
s 1.257501494 _0_ RTR  --- 19 tcp 1540 [0 0 0 0] ------- [0:0 4:0 30 14] [12 0] 0 0
r 1.271346357 _14_ RTR  --- 16 tcp 1540 [13a e 0 800] ------- [0:0 4:0 30 14] [10 0] 1 0
f 1.271346357 _14_ RTR  --- 16 tcp 1540 [13a e 0 800] ------- [0:0 4:0 29 4] [10 0] 1 0
r 1.285232736 _4_ AGT  --- 12 tcp 1540 [13a 4 e 800] ------- [0:0 4:0 29 4] [7 0] 2 0
s 1.285232736 _4_ AGT  --- 20 ack 40 [0 0 0 0] ------- [4:0 0:0 32 0] [7 0] 0 0
r 1.285232736 _4_ RTR  --- 20 ack 40 [0 0 0 0] ------- [4:0 0:0 32 0] [7 0] 0 0
s 1.285232736 _4_ RTR  --- 20 ack 40 [0 0 0 0] ------- [4:0 0:0 30 14] [7 0] 0 0
r 1.287118393 _0_ AGT  --- 17 ack 40 [13a 0 e 800] ------- [4:0 0:0 29 0] [6 0] 2 0
s 1.287118393 _0_ AGT  --- 21 tcp 1540 [0 0 0 0] ------- [0:0 4:0 32 0] [13 0] 0 0
r 1.287118393 _0_ RTR  --- 21 tcp 1540 [0 0 0 0] ------- [0:0 4:0 32 0] [13 0] 0 0
s 1.287118393 _0_ AGT  --- 22 tcp 1540 [0 0 0 0] ------- [0:0 4:0 32 0] [14 0] 0 0
r 1.287118393 _0_ RTR  --- 22 tcp 1540 [0 0 0 0] ------- [0:0 4:0 32 0] [14 0] 0 0
s 1.287118393 _0_ RTR  --- 21 tcp 1540 [0 0 0 0] ------- [0:0 4:0 30 14] [13 0] 0 0
s 1.287118393 _0_ RTR  --- 22 tcp 1540 [0 0 0 0] ------- [0:0 4:0 30 14] [14 0] 0 0
r 1.301143257 _14_ RTR  --- 18 tcp 1540 [13a e 0 800] ------- [0:0 4:0 30 14] [11 0] 1 0
f 1.301143257 _14_ RTR  --- 18 tcp 1540 [13a e 0 800] ------- [0:0 4:0 29 4] [11 0] 1 0
r 1.315109638 _4_ AGT  --- 13 tcp 1540 [13a 4 e 800] ------- [0:0 4:0 29 4] [8 0] 2 0
s 1.315109638 _4_ AGT  --- 23 ack 40 [0 0 0 0] ------- [4:0 0:0 32 0] [8 0] 0 0
r 1.315109638 _4_ RTR  --- 23 ack 40 [0 0 0 0] ------- [4:0 0:0 32 0] [8 0] 0 0
s 1.315109638 _4_ RTR  --- 23 ack 40 [0 0 0 0] ------- [4:0 0:0 30 14] [8 0] 0 0
r 1.316996018 _14_ RTR  --- 20 ack 40 [13a e 4 800] ------- [4:0 0:0 30 14] [7 0] 1 0
f 1.316996018 _14_ RTR  --- 20 ack 40 [13a e 4 800] ------- [4:0 0:0 29 0] [7 0] 1 0
r 1.331729986 _4_ AGT  --- 15 tcp 1540 [13a 4 e 800] ------- [0:0 4:0 29 4] [9 0] 2 0
s 1.331729986 _4_ AGT  --- 24 ack 40 [0 0 0 0] ------- [4:0 0:0 32 0] [9 0] 0 0
r 1.331729986 _4_ RTR  --- 24 ack 40 [0 0 0 0] ------- [4:0 0:0 32 0] [9 0] 0 0
s 1.331729986 _4_ RTR  --- 24 ack 40 [0 0 0 0] ------- [4:0 0:0 30 14] [9 0] 0 0
r 1.333172963 _15_ RTR  --- 0 AODV 48 [0 ffffffff 3 800] ------- [3:255 -1:255 27 0] [0x2 4 1 [4 0] [0 4]] (REQUEST)
r 1.333173350 _4_ RTR  --- 0 AODV 48 [0 ffffffff 3 800] ------- [3:255 -1:255 27 0] [0x2 4 1 [4 0] [0 4]] (REQUEST)
r 1.335385731 _14_ RTR  --- 23 ack 40 [13a e 4 800] ------- [4:0 0:0 30 14] [8 0] 1 0
f 1.335385731 _14_ RTR  --- 23 ack 40 [13a e 4 800] ------- [4:0 0:0 29 0] [8 0] 1 0
r 1.349272113 _4_ AGT  --- 16 tcp 1540 [13a 4 e 800] ------- [0:0 4:0 29 4] [10 0] 2 0
s 1.349272113 _4_ AGT  --- 25 ack 40 [0 0 0 0] ------- [4:0 0:0 32 0] [10 0] 0 0
r 1.349272113 _4_ RTR  --- 25 ack 40 [0 0 0 0] ------- [4:0 0:0 32 0] [10 0] 0 0
s 1.349272113 _4_ RTR  --- 25 ack 40 [0 0 0 0] ------- [4:0 0:0 30 14] [10 0] 0 0
r 1.363399288 _4_ AGT  --- 18 tcp 1540 [13a 4 e 800] ------- [0:0 4:0 29 4] [11 0] 2 0
s 1.363399288 _4_ AGT  --- 26 ack 40 [0 0 0 0] ------- [4:0 0:0 32 0] [11 0] 0 0
r 1.363399288 _4_ RTR  --- 26 ack 40 [0 0 0 0] ------- [4:0 0:0 32 0] [11 0] 0 0
s 1.363399288 _4_ RTR  --- 26 ack 40 [0 0 0 0] ------- [4:0 0:0 30 14] [11 0] 0 0
r 1.365405671 _14_ RTR  --- 24 ack 40 [13a e 4 800] ------- [4:0 0:0 30 14] [9 0] 1 0
f 1.365405671 _14_ RTR  --- 24 ack 40 [13a e 4 800] ------- [4:0 0:0 29 0] [9 0] 1 0
r 1.367350537 _0_ AGT  --- 20 ack 40 [13a 0 e 800] ------- [4:0 0:0 29 0] [7 0] 2 0
s 1.367350537 _0_ AGT  --- 27 tcp 1540 [0 0 0 0] ------- [0:0 4:0 32 0] [15 0] 0 0
r 1.367350537 _0_ RTR  --- 27 tcp 1540 [0 0 0 0] ------- [0:0 4:0 32 0] [15 0] 0 0
s 1.367350537 _0_ AGT  --- 28 tcp 1540 [0 0 0 0] ------- [0:0 4:0 32 0] [16 0] 0 0
r 1.367350537 _0_ RTR  --- 28 tcp 1540 [0 0 0 0] ------- [0:0 4:0 32 0] [16 0] 0 0
s 1.367350537 _0_ RTR  --- 27 tcp 1540 [0 0 0 0] ------- [0:0 4:0 30 14] [15 0] 0 0
s 1.367350537 _0_ RTR  --- 28 tcp 1540 [0 0 0 0] ------- [0:0 4:0 30 14] [16 0] 0 0
r 1.381255403 _14_ RTR  --- 19 tcp 1540 [13a e 0 800] ------- [0:0 4:0 30 14] [12 0] 1 0
f 1.381255403 _14_ RTR  --- 19 tcp 1540 [13a e 0 800] ------- [0:0 4:0 29 4] [12 0] 1 0
r 1.395120559 _14_ RTR  --- 21 tcp 1540 [13a e 0 800] ------- [0:0 4:0 30 14] [13 0] 1 0
f 1.395120559 _14_ RTR  --- 21 tcp 1540 [13a e 0 800] ------- [0:0 4:0 29 4] [13 0] 1 0
r 1.397165426 _0_ AGT  --- 23 ack 40 [13a 0 e 800] ------- [4:0 0:0 29 0] [8 0] 2 0
s 1.397165426 _0_ AGT  --- 29 tcp 1540 [0 0 0 0] ------- [0:0 4:0 32 0] [17 0] 0 0
r 1.397165426 _0_ RTR  --- 29 tcp 1540 [0 0 0 0] ------- [0:0 4:0 32 0] [17 0] 0 0
s 1.397165426 _0_ AGT  --- 30 tcp 1540 [0 0 0 0] ------- [0:0 4:0 32 0] [18 0] 0 0
r 1.397165426 _0_ RTR  --- 30 tcp 1540 [0 0 0 0] ------- [0:0 4:0 32 0] [18 0] 0 0
s 1.397165426 _0_ RTR  --- 29 tcp 1540 [0 0 0 0] ------- [0:0 4:0 30 14] [17 0] 0 0
s 1.397165426 _0_ RTR  --- 30 tcp 1540 [0 0 0 0] ------- [0:0 4:0 30 14] [18 0] 0 0
r 1.399210582 _0_ AGT  --- 24 ack 40 [13a 0 e 800] ------- [4:0 0:0 29 0] [9 0] 2 0
s 1.399210582 _0_ AGT  --- 31 tcp 1540 [0 0 0 0] ------- [0:0 4:0 32 0] [19 0] 0 0
r 1.399210582 _0_ RTR  --- 31 tcp 1540 [0 0 0 0] ------- [0:0 4:0 32 0] [19 0] 0 0
s 1.399210582 _0_ AGT  --- 32 tcp 1540 [0 0 0 0] ------- [0:0 4:0 32 0] [20 0] 0 0
r 1.399210582 _0_ RTR  --- 32 tcp 1540 [0 0 0 0] ------- [0:0 4:0 32 0] [20 0] 0 0
s 1.399210582 _0_ RTR  --- 31 tcp 1540 [0 0 0 0] ------- [0:0 4:0 30 14] [19 0] 0 0
s 1.399210582 _0_ RTR  --- 32 tcp 1540 [0 0 0 0] ------- [0:0 4:0 30 14] [20 0] 0 0
r 1.413175449 _14_ RTR  --- 22 tcp 1540 [13a e 0 800] ------- [0:0 4:0 30 14] [14 0] 1 0
f 1.413175449 _14_ RTR  --- 22 tcp 1540 [13a e 0 800] ------- [0:0 4:0 29 4] [14 0] 1 0
r 1.427041833 _4_ AGT  --- 19 tcp 1540 [13a 4 e 800] ------- [0:0 4:0 29 4] [12 0] 2 0
s 1.427041833 _4_ AGT  --- 33 ack 40 [0 0 0 0] ------- [4:0 0:0 32 0] [12 0] 0 0
r 1.427041833 _4_ RTR  --- 33 ack 40 [0 0 0 0] ------- [4:0 0:0 32 0] [12 0] 0 0
s 1.427041833 _4_ RTR  --- 33 ack 40 [0 0 0 0] ------- [4:0 0:0 30 14] [12 0] 0 0
r 1.428888217 _14_ RTR  --- 25 ack 40 [13a e 4 800] ------- [4:0 0:0 30 14] [10 0] 1 0
f 1.428888217 _14_ RTR  --- 25 ack 40 [13a e 4 800] ------- [4:0 0:0 29 0] [10 0] 1 0
r 1.442883284 _14_ RTR  --- 27 tcp 1540 [13a e 0 800] ------- [0:0 4:0 30 14] [15 0] 1 0
f 1.442883284 _14_ RTR  --- 27 tcp 1540 [13a e 0 800] ------- [0:0 4:0 29 4] [15 0] 1 0
r 1.456828442 _14_ RTR  --- 28 tcp 1540 [13a e 0 800] ------- [0:0 4:0 30 14] [16 0] 1 0
f 1.456828442 _14_ RTR  --- 28 tcp 1540 [13a e 0 800] ------- [0:0 4:0 29 4] [16 0] 1 0
r 1.470794828 _4_ AGT  --- 21 tcp 1540 [13a 4 e 800] ------- [0:0 4:0 29 4] [13 0] 2 0
s 1.470794828 _4_ AGT  --- 34 ack 40 [0 0 0 0] ------- [4:0 0:0 32 0] [13 0] 0 0
r 1.470794828 _4_ RTR  --- 34 ack 40 [0 0 0 0] ------- [4:0 0:0 32 0] [13 0] 0 0
s 1.470794828 _4_ RTR  --- 34 ack 40 [0 0 0 0] ------- [4:0 0:0 30 14] [13 0] 0 0
r 1.472721214 _14_ RTR  --- 26 ack 40 [13a e 4 800] ------- [4:0 0:0 30 14] [11 0] 1 0
f 1.472721214 _14_ RTR  --- 26 ack 40 [13a e 4 800] ------- [4:0 0:0 29 0] [11 0] 1 0
r 1.474548395 _14_ RTR  --- 33 ack 40 [13a e 4 800] ------- [4:0 0:0 30 14] [12 0] 1 0
f 1.474548395 _14_ RTR  --- 33 ack 40 [13a e 4 800] ------- [4:0 0:0 29 0] [12 0] 1 0
r 1.488443463 _14_ RTR  --- 29 tcp 1540 [13a e 0 800] ------- [0:0 4:0 30 14] [17 0] 1 0
f 1.488443463 _14_ RTR  --- 29 tcp 1540 [13a e 0 800] ------- [0:0 4:0 29 4] [17 0] 1 0
r 1.502329849 _4_ AGT  --- 22 tcp 1540 [13a 4 e 800] ------- [0:0 4:0 29 4] [14 0] 2 0
s 1.502329849 _4_ AGT  --- 35 ack 40 [0 0 0 0] ------- [4:0 0:0 32 0] [14 0] 0 0
r 1.502329849 _4_ RTR  --- 35 ack 40 [0 0 0 0] ------- [4:0 0:0 32 0] [14 0] 0 0
s 1.502329849 _4_ RTR  --- 35 ack 40 [0 0 0 0] ------- [4:0 0:0 30 14] [14 0] 0 0
r 1.504236236 _14_ RTR  --- 34 ack 40 [13a e 4 800] ------- [4:0 0:0 30 14] [13 0] 1 0
f 1.504236236 _14_ RTR  --- 34 ack 40 [13a e 4 800] ------- [4:0 0:0 29 0] [13 0] 1 0
r 1.506301106 _0_ AGT  --- 25 ack 40 [13a 0 e 800] ------- [4:0 0:0 29 0] [10 0] 2 0
s 1.506301106 _0_ AGT  --- 36 tcp 1540 [0 0 0 0] ------- [0:0 4:0 32 0] [21 0] 0 0
r 1.506301106 _0_ RTR  --- 36 tcp 1540 [0 0 0 0] ------- [0:0 4:0 32 0] [21 0] 0 0
s 1.506301106 _0_ AGT  --- 37 tcp 1540 [0 0 0 0] ------- [0:0 4:0 32 0] [22 0] 0 0
r 1.506301106 _0_ RTR  --- 37 tcp 1540 [0 0 0 0] ------- [0:0 4:0 32 0] [22 0] 0 0
s 1.506301106 _0_ RTR  --- 36 tcp 1540 [0 0 0 0] ------- [0:0 4:0 30 14] [21 0] 0 0
s 1.506301106 _0_ RTR  --- 37 tcp 1540 [0 0 0 0] ------- [0:0 4:0 30 14] [22 0] 0 0
r 1.520245977 _14_ RTR  --- 30 tcp 1540 [13a e 0 800] ------- [0:0 4:0 30 14] [18 0] 1 0
f 1.520245977 _14_ RTR  --- 30 tcp 1540 [13a e 0 800] ------- [0:0 4:0 29 4] [18 0] 1 0
r 1.522303068 _14_ RTR  --- 35 ack 40 [13a e 4 800] ------- [4:0 0:0 30 14] [14 0] 1 0
f 1.522303068 _14_ RTR  --- 35 ack 40 [13a e 4 800] ------- [4:0 0:0 29 0] [14 0] 1 0
r 1.536278137 _14_ RTR  --- 31 tcp 1540 [13a e 0 800] ------- [0:0 4:0 30 14] [19 0] 1 0
f 1.536278137 _14_ RTR  --- 31 tcp 1540 [13a e 0 800] ------- [0:0 4:0 29 4] [19 0] 1 0
r 1.551009299 _14_ RTR  --- 32 tcp 1540 [13a e 0 800] ------- [0:0 4:0 30 14] [20 0] 1 0
f 1.551009299 _14_ RTR  --- 32 tcp 1540 [13a e 0 800] ------- [0:0 4:0 29 4] [20 0] 1 0
r 1.564834461 _14_ RTR  --- 36 tcp 1540 [13a e 0 800] ------- [0:0 4:0 30 14] [21 0] 1 0
f 1.564834461 _14_ RTR  --- 36 tcp 1540 [13a e 0 800] ------- [0:0 4:0 29 4] [21 0] 1 0
r 1.578719623 _14_ RTR  --- 37 tcp 1540 [13a e 0 800] ------- [0:0 4:0 30 14] [22 0] 1 0
f 1.578719623 _14_ RTR  --- 37 tcp 1540 [13a e 0 800] ------- [0:0 4:0 29 4] [22 0] 1 0
r 1.593326013 _4_ AGT  --- 27 tcp 1540 [13a 4 e 800] ------- [0:0 4:0 29 4] [15 0] 2 0
s 1.593326013 _4_ AGT  --- 38 ack 40 [0 0 0 0] ------- [4:0 0:0 32 0] [15 0] 0 0
r 1.593326013 _4_ RTR  --- 38 ack 40 [0 0 0 0] ------- [4:0 0:0 32 0] [15 0] 0 0
s 1.593326013 _4_ RTR  --- 38 ack 40 [0 0 0 0] ------- [4:0 0:0 30 14] [15 0] 0 0
r 1.607573199 _4_ AGT  --- 28 tcp 1540 [13a 4 e 800] ------- [0:0 4:0 29 4] [16 0] 2 0
s 1.607573199 _4_ AGT  --- 39 ack 40 [0 0 0 0] ------- [4:0 0:0 32 0] [16 0] 0 0
r 1.607573199 _4_ RTR  --- 39 ack 40 [0 0 0 0] ------- [4:0 0:0 32 0] [16 0] 0 0
s 1.607573199 _4_ RTR  --- 39 ack 40 [0 0 0 0] ------- [4:0 0:0 30 14] [16 0] 0 0
r 1.609418869 _0_ AGT  --- 26 ack 40 [13a 0 e 800] ------- [4:0 0:0 29 0] [11 0] 2 0
s 1.609418869 _0_ AGT  --- 40 tcp 1540 [0 0 0 0] ------- [0:0 4:0 32 0] [23 0] 0 0
r 1.609418869 _0_ RTR  --- 40 tcp 1540 [0 0 0 0] ------- [0:0 4:0 32 0] [23 0] 0 0
s 1.609418869 _0_ AGT  --- 41 tcp 1540 [0 0 0 0] ------- [0:0 4:0 32 0] [24 0] 0 0
r 1.609418869 _0_ RTR  --- 41 tcp 1540 [0 0 0 0] ------- [0:0 4:0 32 0] [24 0] 0 0
s 1.609418869 _0_ RTR  --- 40 tcp 1540 [0 0 0 0] ------- [0:0 4:0 30 14] [23 0] 0 0
s 1.609418869 _0_ RTR  --- 41 tcp 1540 [0 0 0 0] ------- [0:0 4:0 30 14] [24 0] 0 0
r 1.623263743 _14_ RTR  --- 40 tcp 1540 [13a e 0 800] ------- [0:0 4:0 30 14] [23 0] 1 0
f 1.623263743 _14_ RTR  --- 40 tcp 1540 [13a e 0 800] ------- [0:0 4:0 29 4] [23 0] 1 0
r 1.625128616 _0_ AGT  --- 33 ack 40 [13a 0 e 800] ------- [4:0 0:0 29 0] [12 0] 2 0
s 1.625128616 _0_ AGT  --- 42 tcp 1540 [0 0 0 0] ------- [0:0 4:0 32 0] [25 0] 0 0
r 1.625128616 _0_ RTR  --- 42 tcp 1540 [0 0 0 0] ------- [0:0 4:0 32 0] [25 0] 0 0
s 1.625128616 _0_ AGT  --- 43 tcp 1540 [0 0 0 0] ------- [0:0 4:0 32 0] [26 0] 0 0
r 1.625128616 _0_ RTR  --- 43 tcp 1540 [0 0 0 0] ------- [0:0 4:0 32 0] [26 0] 0 0
s 1.625128616 _0_ RTR  --- 42 tcp 1540 [0 0 0 0] ------- [0:0 4:0 30 14] [25 0] 0 0
s 1.625128616 _0_ RTR  --- 43 tcp 1540 [0 0 0 0] ------- [0:0 4:0 30 14] [26 0] 0 0
r 1.638975299 _4_ AGT  --- 29 tcp 1540 [13a 4 e 800] ------- [0:0 4:0 29 4] [17 0] 2 0
s 1.638975299 _4_ AGT  --- 44 ack 40 [0 0 0 0] ------- [4:0 0:0 32 0] [17 0] 0 0
r 1.638975299 _4_ RTR  --- 44 ack 40 [0 0 0 0] ------- [4:0 0:0 32 0] [17 0] 0 0
s 1.638975299 _4_ RTR  --- 44 ack 40 [0 0 0 0] ------- [4:0 0:0 30 14] [17 0] 0 0
r 1.640820970 _0_ AGT  --- 34 ack 40 [13a 0 e 800] ------- [4:0 0:0 29 0] [13 0] 2 0
s 1.640820970 _0_ AGT  --- 45 tcp 1540 [0 0 0 0] ------- [0:0 4:0 32 0] [27 0] 0 0
r 1.640820970 _0_ RTR  --- 45 tcp 1540 [0 0 0 0] ------- [0:0 4:0 32 0] [27 0] 0 0
s 1.640820970 _0_ AGT  --- 46 tcp 1540 [0 0 0 0] ------- [0:0 4:0 32 0] [28 0] 0 0
r 1.640820970 _0_ RTR  --- 46 tcp 1540 [0 0 0 0] ------- [0:0 4:0 32 0] [28 0] 0 0
s 1.640820970 _0_ RTR  --- 45 tcp 1540 [0 0 0 0] ------- [0:0 4:0 30 14] [27 0] 0 0
s 1.640820970 _0_ RTR  --- 46 tcp 1540 [0 0 0 0] ------- [0:0 4:0 30 14] [28 0] 0 0
r 1.654845844 _14_ RTR  --- 41 tcp 1540 [13a e 0 800] ------- [0:0 4:0 30 14] [24 0] 1 0
f 1.654845844 _14_ RTR  --- 41 tcp 1540 [13a e 0 800] ------- [0:0 4:0 29 4] [24 0] 1 0
r 1.668852236 _4_ AGT  --- 30 tcp 1540 [13a 4 e 800] ------- [0:0 4:0 29 4] [18 0] 2 0
s 1.668852236 _4_ AGT  --- 47 ack 40 [0 0 0 0] ------- [4:0 0:0 32 0] [18 0] 0 0
r 1.668852236 _4_ RTR  --- 47 ack 40 [0 0 0 0] ------- [4:0 0:0 32 0] [18 0] 0 0
s 1.668852236 _4_ RTR  --- 47 ack 40 [0 0 0 0] ------- [4:0 0:0 30 14] [18 0] 0 0
r 1.670698628 _14_ RTR  --- 38 ack 40 [13a e 4 800] ------- [4:0 0:0 30 14] [15 0] 1 0
f 1.670698628 _14_ RTR  --- 38 ack 40 [13a e 4 800] ------- [4:0 0:0 29 0] [15 0] 1 0
r 1.684833701 _14_ RTR  --- 42 tcp 1540 [13a e 0 800] ------- [0:0 4:0 30 14] [25 0] 1 0
f 1.684833701 _14_ RTR  --- 42 tcp 1540 [13a e 0 800] ------- [0:0 4:0 29 4] [25 0] 1 0
r 1.686718576 _0_ AGT  --- 35 ack 40 [13a 0 e 800] ------- [4:0 0:0 29 0] [14 0] 2 0
s 1.686718576 _0_ AGT  --- 48 tcp 1540 [0 0 0 0] ------- [0:0 4:0 32 0] [29 0] 0 0
r 1.686718576 _0_ RTR  --- 48 tcp 1540 [0 0 0 0] ------- [0:0 4:0 32 0] [29 0] 0 0
s 1.686718576 _0_ AGT  --- 49 tcp 1540 [0 0 0 0] ------- [0:0 4:0 32 0] [30 0] 0 0
r 1.686718576 _0_ RTR  --- 49 tcp 1540 [0 0 0 0] ------- [0:0 4:0 32 0] [30 0] 0 0
s 1.686718576 _0_ RTR  --- 48 tcp 1540 [0 0 0 0] ------- [0:0 4:0 30 14] [29 0] 0 0
s 1.686718576 _0_ RTR  --- 49 tcp 1540 [0 0 0 0] ------- [0:0 4:0 30 14] [30 0] 0 0
r 1.700725261 _4_ AGT  --- 31 tcp 1540 [13a 4 e 800] ------- [0:0 4:0 29 4] [19 0] 2 0
s 1.700725261 _4_ AGT  --- 50 ack 40 [0 0 0 0] ------- [4:0 0:0 32 0] [19 0] 0 0
r 1.700725261 _4_ RTR  --- 50 ack 40 [0 0 0 0] ------- [4:0 0:0 32 0] [19 0] 0 0
s 1.700725261 _4_ RTR  --- 50 ack 40 [0 0 0 0] ------- [4:0 0:0 30 14] [19 0] 0 0
r 1.702731655 _14_ RTR  --- 39 ack 40 [13a e 4 800] ------- [4:0 0:0 30 14] [16 0] 1 0
f 1.702731655 _14_ RTR  --- 39 ack 40 [13a e 4 800] ------- [4:0 0:0 29 0] [16 0] 1 0
r 1.716686728 _14_ RTR  --- 43 tcp 1540 [13a e 0 800] ------- [0:0 4:0 30 14] [26 0] 1 0
f 1.716686728 _14_ RTR  --- 43 tcp 1540 [13a e 0 800] ------- [0:0 4:0 29 4] [26 0] 1 0
r 1.718623825 _14_ RTR  --- 44 ack 40 [13a e 4 800] ------- [4:0 0:0 30 14] [17 0] 1 0
f 1.718623825 _14_ RTR  --- 44 ack 40 [13a e 4 800] ------- [4:0 0:0 29 0] [17 0] 1 0
r 1.732538898 _14_ RTR  --- 45 tcp 1540 [13a e 0 800] ------- [0:0 4:0 30 14] [27 0] 1 0
f 1.732538898 _14_ RTR  --- 45 tcp 1540 [13a e 0 800] ------- [0:0 4:0 29 4] [27 0] 1 0
r 1.746364067 _14_ RTR  --- 46 tcp 1540 [13a e 0 800] ------- [0:0 4:0 30 14] [28 0] 1 0
f 1.746364067 _14_ RTR  --- 46 tcp 1540 [13a e 0 800] ------- [0:0 4:0 29 4] [28 0] 1 0
r 1.760250463 _4_ AGT  --- 32 tcp 1540 [13a 4 e 800] ------- [0:0 4:0 29 4] [20 0] 2 0
s 1.760250463 _4_ AGT  --- 51 ack 40 [0 0 0 0] ------- [4:0 0:0 32 0] [20 0] 0 0
r 1.760250463 _4_ RTR  --- 51 ack 40 [0 0 0 0] ------- [4:0 0:0 32 0] [20 0] 0 0
s 1.760250463 _4_ RTR  --- 51 ack 40 [0 0 0 0] ------- [4:0 0:0 30 14] [20 0] 0 0
r 1.774077657 _4_ AGT  --- 36 tcp 1540 [13a 4 e 800] ------- [0:0 4:0 29 4] [21 0] 2 0
s 1.774077657 _4_ AGT  --- 52 ack 40 [0 0 0 0] ------- [4:0 0:0 32 0] [21 0] 0 0
r 1.774077657 _4_ RTR  --- 52 ack 40 [0 0 0 0] ------- [4:0 0:0 32 0] [21 0] 0 0
s 1.774077657 _4_ RTR  --- 52 ack 40 [0 0 0 0] ------- [4:0 0:0 30 14] [21 0] 0 0
r 1.776064053 _14_ RTR  --- 47 ack 40 [13a e 4 800] ------- [4:0 0:0 30 14] [18 0] 1 0
f 1.776064053 _14_ RTR  --- 47 ack 40 [13a e 4 800] ------- [4:0 0:0 29 0] [18 0] 1 0
r 1.789979127 _14_ RTR  --- 48 tcp 1540 [13a e 0 800] ------- [0:0 4:0 30 14] [29 0] 1 0
f 1.789979127 _14_ RTR  --- 48 tcp 1540 [13a e 0 800] ------- [0:0 4:0 29 4] [29 0] 1 0
r 1.804105524 _4_ AGT  --- 37 tcp 1540 [13a 4 e 800] ------- [0:0 4:0 29 4] [22 0] 2 0
s 1.804105524 _4_ AGT  --- 53 ack 40 [0 0 0 0] ------- [4:0 0:0 32 0] [22 0] 0 0
r 1.804105524 _4_ RTR  --- 53 ack 40 [0 0 0 0] ------- [4:0 0:0 32 0] [22 0] 0 0
s 1.804105524 _4_ RTR  --- 53 ack 40 [0 0 0 0] ------- [4:0 0:0 30 14] [22 0] 0 0
r 1.806171921 _14_ RTR  --- 50 ack 40 [13a e 4 800] ------- [4:0 0:0 30 14] [19 0] 1 0
f 1.806171921 _14_ RTR  --- 50 ack 40 [13a e 4 800] ------- [4:0 0:0 29 0] [19 0] 1 0
r 1.808219117 _14_ RTR  --- 51 ack 40 [13a e 4 800] ------- [4:0 0:0 30 14] [20 0] 1 0
f 1.808219117 _14_ RTR  --- 51 ack 40 [13a e 4 800] ------- [4:0 0:0 29 0] [20 0] 1 0
r 1.822165514 _4_ AGT  --- 40 tcp 1540 [13a 4 e 800] ------- [0:0 4:0 29 4] [23 0] 2 0
s 1.822165514 _4_ AGT  --- 54 ack 40 [0 0 0 0] ------- [4:0 0:0 32 0] [23 0] 0 0
r 1.822165514 _4_ RTR  --- 54 ack 40 [0 0 0 0] ------- [4:0 0:0 32 0] [23 0] 0 0
s 1.822165514 _4_ RTR  --- 54 ack 40 [0 0 0 0] ------- [4:0 0:0 30 14] [23 0] 0 0
r 1.836132711 _4_ AGT  --- 41 tcp 1540 [13a 4 e 800] ------- [0:0 4:0 29 4] [24 0] 2 0
s 1.836132711 _4_ AGT  --- 55 ack 40 [0 0 0 0] ------- [4:0 0:0 32 0] [24 0] 0 0
r 1.836132711 _4_ RTR  --- 55 ack 40 [0 0 0 0] ------- [4:0 0:0 32 0] [24 0] 0 0
s 1.836132711 _4_ RTR  --- 55 ack 40 [0 0 0 0] ------- [4:0 0:0 30 14] [24 0] 0 0
r 1.838198390 _0_ AGT  --- 38 ack 40 [13a 0 e 800] ------- [4:0 0:0 29 0] [15 0] 2 0
s 1.838198390 _0_ AGT  --- 56 tcp 1540 [0 0 0 0] ------- [0:0 4:0 32 0] [31 0] 0 0
r 1.838198390 _0_ RTR  --- 56 tcp 1540 [0 0 0 0] ------- [0:0 4:0 32 0] [31 0] 0 0
s 1.838198390 _0_ AGT  --- 57 tcp 1540 [0 0 0 0] ------- [0:0 4:0 32 0] [32 0] 0 0
r 1.838198390 _0_ RTR  --- 57 tcp 1540 [0 0 0 0] ------- [0:0 4:0 32 0] [32 0] 0 0
s 1.838198390 _0_ RTR  --- 56 tcp 1540 [0 0 0 0] ------- [0:0 4:0 30 14] [31 0] 0 0
s 1.838198390 _0_ RTR  --- 57 tcp 1540 [0 0 0 0] ------- [0:0 4:0 30 14] [32 0] 0 0
r 1.852083270 _14_ RTR  --- 49 tcp 1540 [13a e 0 800] ------- [0:0 4:0 30 14] [30 0] 1 0
f 1.852083270 _14_ RTR  --- 49 tcp 1540 [13a e 0 800] ------- [0:0 4:0 29 4] [30 0] 1 0
r 1.853980371 _14_ RTR  --- 52 ack 40 [13a e 4 800] ------- [4:0 0:0 30 14] [21 0] 1 0
f 1.853980371 _14_ RTR  --- 52 ack 40 [13a e 4 800] ------- [4:0 0:0 29 0] [21 0] 1 0
r 1.867895448 _14_ RTR  --- 56 tcp 1540 [13a e 0 800] ------- [0:0 4:0 30 14] [31 0] 1 0
f 1.867895448 _14_ RTR  --- 56 tcp 1540 [13a e 0 800] ------- [0:0 4:0 29 4] [31 0] 1 0
r 1.881720622 _14_ RTR  --- 57 tcp 1540 [13a e 0 800] ------- [0:0 4:0 30 14] [32 0] 1 0
f 1.881720622 _14_ RTR  --- 57 tcp 1540 [13a e 0 800] ------- [0:0 4:0 29 4] [32 0] 1 0
r 1.883697724 _14_ RTR  --- 53 ack 40 [13a e 4 800] ------- [4:0 0:0 30 14] [22 0] 1 0
f 1.883697724 _14_ RTR  --- 53 ack 40 [13a e 4 800] ------- [4:0 0:0 29 0] [22 0] 1 0
r 1.897704124 _4_ AGT  --- 42 tcp 1540 [13a 4 e 800] ------- [0:0 4:0 29 4] [25 0] 2 0
s 1.897704124 _4_ AGT  --- 58 ack 40 [0 0 0 0] ------- [4:0 0:0 32 0] [25 0] 0 0
r 1.897704124 _4_ RTR  --- 58 ack 40 [0 0 0 0] ------- [4:0 0:0 32 0] [25 0] 0 0
s 1.897704124 _4_ RTR  --- 58 ack 40 [0 0 0 0] ------- [4:0 0:0 30 14] [25 0] 0 0
r 1.899769806 _0_ AGT  --- 39 ack 40 [13a 0 e 800] ------- [4:0 0:0 29 0] [16 0] 2 0
s 1.899769806 _0_ AGT  --- 59 tcp 1540 [0 0 0 0] ------- [0:0 4:0 32 0] [33 0] 0 0
r 1.899769806 _0_ RTR  --- 59 tcp 1540 [0 0 0 0] ------- [0:0 4:0 32 0] [33 0] 0 0
s 1.899769806 _0_ AGT  --- 60 tcp 1540 [0 0 0 0] ------- [0:0 4:0 32 0] [34 0] 0 0
r 1.899769806 _0_ RTR  --- 60 tcp 1540 [0 0 0 0] ------- [0:0 4:0 32 0] [34 0] 0 0
s 1.899769806 _0_ RTR  --- 59 tcp 1540 [0 0 0 0] ------- [0:0 4:0 30 14] [33 0] 0 0
s 1.899769806 _0_ RTR  --- 60 tcp 1540 [0 0 0 0] ------- [0:0 4:0 30 14] [34 0] 0 0
r 1.913596500 _4_ AGT  --- 43 tcp 1540 [13a 4 e 800] ------- [0:0 4:0 29 4] [26 0] 2 0
s 1.913596500 _4_ AGT  --- 61 ack 40 [0 0 0 0] ------- [4:0 0:0 32 0] [26 0] 0 0
r 1.913596500 _4_ RTR  --- 61 ack 40 [0 0 0 0] ------- [4:0 0:0 32 0] [26 0] 0 0
s 1.913596500 _4_ RTR  --- 61 ack 40 [0 0 0 0] ------- [4:0 0:0 30 14] [26 0] 0 0
r 1.915502900 _14_ RTR  --- 54 ack 40 [13a e 4 800] ------- [4:0 0:0 30 14] [23 0] 1 0
f 1.915502900 _14_ RTR  --- 54 ack 40 [13a e 4 800] ------- [4:0 0:0 29 0] [23 0] 1 0
r 1.917367783 _0_ AGT  --- 44 ack 40 [13a 0 e 800] ------- [4:0 0:0 29 0] [17 0] 2 0
s 1.917367783 _0_ AGT  --- 62 tcp 1540 [0 0 0 0] ------- [0:0 4:0 32 0] [35 0] 0 0
r 1.917367783 _0_ RTR  --- 62 tcp 1540 [0 0 0 0] ------- [0:0 4:0 32 0] [35 0] 0 0
s 1.917367783 _0_ AGT  --- 63 tcp 1540 [0 0 0 0] ------- [0:0 4:0 32 0] [36 0] 0 0
r 1.917367783 _0_ RTR  --- 63 tcp 1540 [0 0 0 0] ------- [0:0 4:0 32 0] [36 0] 0 0
s 1.917367783 _0_ RTR  --- 62 tcp 1540 [0 0 0 0] ------- [0:0 4:0 30 14] [35 0] 0 0
s 1.917367783 _0_ RTR  --- 63 tcp 1540 [0 0 0 0] ------- [0:0 4:0 30 14] [36 0] 0 0
r 1.931312665 _14_ RTR  --- 59 tcp 1540 [13a e 0 800] ------- [0:0 4:0 30 14] [33 0] 1 0