s 3.071859089 _0_ AGT  --- 695 tcp 41 [0 0 0 0] ------- [0:0 9:0 32 0] [1 0] 0 0
r 3.071859089 _0_ RTR  --- 695 tcp 41 [0 0 0 0] ------- [0:0 9:0 32 0] [1 0] 0 0
s 3.071859089 _0_ AGT  --- 696 tcp 41 [0 0 0 0] ------- [0:0 9:0 32 0] [2 0] 0 0
r 3.071859089 _0_ RTR  --- 696 tcp 41 [0 0 0 0] ------- [0:0 9:0 32 0] [2 0] 0 0
s 3.071859089 _0_ RTR  --- 695 tcp 41 [0 0 0 0] ------- [0:0 9:0 30 16] [1 0] 0 0
s 3.071859089 _0_ RTR  --- 696 tcp 41 [0 0 0 0] ------- [0:0 9:0 30 16] [2 0] 0 0
r 3.074232768 _16_ RTR  --- 695 tcp 41 [13a 10 0 800] ------- [0:0 9:0 30 16] [1 0] 1 0
f 3.074232768 _16_ RTR  --- 695 tcp 41 [13a 10 0 800] ------- [0:0 9:0 29 9] [1 0] 1 0
r 3.076486987 _9_ AGT  --- 695 tcp 41 [13a 9 10 800] ------- [0:0 9:0 29 9] [1 0] 2 0
s 3.076486987 _9_ AGT  --- 697 ack 40 [0 0 0 0] ------- [9:0 0:0 32 0] [1 0] 0 0
r 3.076486987 _9_ RTR  --- 697 ack 40 [0 0 0 0] ------- [9:0 0:0 32 0] [1 0] 0 0
s 3.076486987 _9_ RTR  --- 697 ack 40 [0 0 0 0] ------- [9:0 0:0 30 16] [1 0] 0 0
r 3.081417417 _10_ RTR  --- 0 AODV 44 [13a a 8 800] ------- [8:255 1:255 30 10] [0x4 1 [8 6] 10.000000] (REPLY)
f 3.081417417 _10_ RTR  --- 0 AODV 44 [13a a 8 800] ------- [8:255 1:255 29 2] [0x4 2 [8 6] 10.000000] (REPLY)
r 3.085197397 _16_ RTR  --- 696 tcp 41 [13a 10 0 800] ------- [0:0 9:0 30 16] [2 0] 1 0
f 3.085197397 _16_ RTR  --- 696 tcp 41 [13a 10 0 800] ------- [0:0 9:0 29 9] [2 0] 1 0
r 3.087231616 _9_ AGT  --- 696 tcp 41 [13a 9 10 800] ------- [0:0 9:0 29 9] [2 0] 2 0
s 3.087231616 _9_ AGT  --- 698 ack 40 [0 0 0 0] ------- [9:0 0:0 32 0] [2 0] 0 0
r 3.087231616 _9_ RTR  --- 698 ack 40 [0 0 0 0] ------- [9:0 0:0 32 0] [2 0] 0 0
s 3.087231616 _9_ RTR  --- 698 ack 40 [0 0 0 0] ------- [9:0 0:0 30 16] [2 0] 0 0
r 3.090623437 _2_ AGT  --- 609 ack 40 [13a 2 7 800] ------- [7:0 2:0 30 2] [286 0] 1 0
s 3.090623437 _2_ AGT  --- 699 tcp 41 [0 0 0 0] ------- [2:0 7:0 32 0] [306 0] 0 0
r 3.090623437 _2_ RTR  --- 699 tcp 41 [0 0 0 0] ------- [2:0 7:0 32 0] [306 0] 0 0
s 3.090623437 _2_ RTR  --- 699 tcp 41 [0 0 0 0] ------- [2:0 7:0 30 7] [306 0] 0 0
r 3.092897686 _7_ AGT  --- 699 tcp 41 [13a 7 2 800] ------- [2:0 7:0 30 7] [306 0] 1 0
s 3.092897686 _7_ AGT  --- 700 ack 40 [0 0 0 0] ------- [7:0 2:0 32 0] [306 0] 0 0
r 3.092897686 _7_ RTR  --- 700 ack 40 [0 0 0 0] ------- [7:0 2:0 32 0] [306 0] 0 0
s 3.092897686 _7_ RTR  --- 700 ack 40 [0 0 0 0] ------- [7:0 2:0 30 2] [306 0] 0 0
r 3.094170338 _11_ RTR  --- 0 AODV 48 [0 ffffffff 7 800] ------- [7:255 -1:255 28 0] [0x2 3 2 [8 0] [1 6]] (REQUEST)
r 3.094170436 _2_ RTR  --- 0 AODV 48 [0 ffffffff 7 800] ------- [7:255 -1:255 28 0] [0x2 3 2 [8 0] [1 6]] (REQUEST)
r 3.094170483 _10_ RTR  --- 0 AODV 48 [0 ffffffff 7 800] ------- [7:255 -1:255 28 0] [0x2 3 2 [8 0] [1 6]] (REQUEST)
r 3.095528338 _11_ RTR  --- 0 AODV 48 [0 ffffffff 7 800] ------- [7:255 -1:255 27 0] [0x2 4 2 [9 0] [0 6]] (REQUEST)
r 3.095528436 _2_ RTR  --- 0 AODV 48 [0 ffffffff 7 800] ------- [7:255 -1:255 27 0] [0x2 4 2 [9 0] [0 6]] (REQUEST)
r 3.095528483 _10_ RTR  --- 0 AODV 48 [0 ffffffff 7 800] ------- [7:255 -1:255 27 0] [0x2 4 2 [9 0] [0 6]] (REQUEST)
r 3.097539935 _2_ AGT  --- 613 ack 40 [13a 2 7 800] ------- [7:0 2:0 30 2] [287 0] 1 0
s 3.097539935 _2_ AGT  --- 701 tcp 41 [0 0 0 0] ------- [2:0 7:0 32 0] [307 0] 0 0
r 3.097539935 _2_ RTR  --- 701 tcp 41 [0 0 0 0] ------- [2:0 7:0 32 0] [307 0] 0 0
s 3.097539935 _2_ RTR  --- 701 tcp 41 [0 0 0 0] ------- [2:0 7:0 30 7] [307 0] 0 0
r 3.099494183 _7_ AGT  --- 701 tcp 41 [13a 7 2 800] ------- [2:0 7:0 30 7] [307 0] 1 0
s 3.099494183 _7_ AGT  --- 702 ack 40 [0 0 0 0] ------- [7:0 2:0 32 0] [307 0] 0 0
r 3.099494183 _7_ RTR  --- 702 ack 40 [0 0 0 0] ------- [7:0 2:0 32 0] [307 0] 0 0
s 3.099494183 _7_ RTR  --- 702 ack 40 [0 0 0 0] ------- [7:0 2:0 30 2] [307 0] 0 0
r 3.101560431 _2_ AGT  --- 616 ack 40 [13a 2 7 800] ------- [7:0 2:0 30 2] [288 0] 1 0
s 3.101560431 _2_ AGT  --- 703 tcp 41 [0 0 0 0] ------- [2:0 7:0 32 0] [308 0] 0 0
r 3.101560431 _2_ RTR  --- 703 tcp 41 [0 0 0 0] ------- [2:0 7:0 32 0] [308 0] 0 0
s 3.101560431 _2_ RTR  --- 703 tcp 41 [0 0 0 0] ------- [2:0 7:0 30 7] [308 0] 0 0
r 3.103667429 _2_ AGT  --- 624 ack 40 [13a 2 7 800] ------- [7:0 2:0 30 2] [289 0] 1 0
s 3.103667429 _2_ AGT  --- 704 tcp 41 [0 0 0 0] ------- [2:0 7:0 32 0] [309 0] 0 0
r 3.103667429 _2_ RTR  --- 704 tcp 41 [0 0 0 0] ------- [2:0 7:0 32 0] [309 0] 0 0
s 3.103667429 _2_ RTR  --- 704 tcp 41 [0 0 0 0] ------- [2:0 7:0 30 7] [309 0] 0 0
r 3.105601677 _7_ AGT  --- 703 tcp 41 [13a 7 2 800] ------- [2:0 7:0 30 7] [308 0] 1 0
s 3.105601677 _7_ AGT  --- 705 ack 40 [0 0 0 0] ------- [7:0 2:0 32 0] [308 0] 0 0
r 3.105601677 _7_ RTR  --- 705 ack 40 [0 0 0 0] ------- [7:0 2:0 32 0] [308 0] 0 0
s 3.105601677 _7_ RTR  --- 705 ack 40 [0 0 0 0] ------- [7:0 2:0 30 2] [308 0] 0 0
r 3.107787925 _2_ AGT  --- 641 ack 40 [13a 2 7 800] ------- [7:0 2:0 30 2] [290 0] 1 0
s 3.107787925 _2_ AGT  --- 706 tcp 41 [0 0 0 0] ------- [2:0 7:0 32 0] [310 0] 0 0
r 3.107787925 _2_ RTR  --- 706 tcp 41 [0 0 0 0] ------- [2:0 7:0 32 0] [310 0] 0 0
s 3.107787925 _2_ RTR  --- 706 tcp 41 [0 0 0 0] ------- [2:0 7:0 30 7] [310 0] 0 0
r 3.109702173 _7_ AGT  --- 704 tcp 41 [13a 7 2 800] ------- [2:0 7:0 30 7] [309 0] 1 0
s 3.109702173 _7_ AGT  --- 707 ack 40 [0 0 0 0] ------- [7:0 2:0 32 0] [309 0] 0 0
r 3.109702173 _7_ RTR  --- 707 ack 40 [0 0 0 0] ------- [7:0 2:0 32 0] [309 0] 0 0
s 3.109702173 _7_ RTR  --- 707 ack 40 [0 0 0 0] ------- [7:0 2:0 30 2] [309 0] 0 0
r 3.111588420 _2_ AGT  --- 644 ack 40 [13a 2 7 800] ------- [7:0 2:0 30 2] [291 0] 1 0
s 3.111588420 _2_ AGT  --- 708 tcp 41 [0 0 0 0] ------- [2:0 7:0 32 0] [311 0] 0 0
r 3.111588420 _2_ RTR  --- 708 tcp 41 [0 0 0 0] ------- [2:0 7:0 32 0] [311 0] 0 0
s 3.111588420 _2_ RTR  --- 708 tcp 41 [0 0 0 0] ------- [2:0 7:0 30 7] [311 0] 0 0
r 3.113842668 _7_ AGT  --- 706 tcp 41 [13a 7 2 800] ------- [2:0 7:0 30 7] [310 0] 1 0
s 3.113842668 _7_ AGT  --- 709 ack 40 [0 0 0 0] ------- [7:0 2:0 32 0] [310 0] 0 0
r 3.113842668 _7_ RTR  --- 709 ack 40 [0 0 0 0] ------- [7:0 2:0 32 0] [310 0] 0 0
s 3.113842668 _7_ RTR  --- 709 ack 40 [0 0 0 0] ------- [7:0 2:0 30 2] [310 0] 0 0
r 3.115828915 _2_ AGT  --- 648 ack 40 [13a 2 7 800] ------- [7:0 2:0 30 2] [292 0] 1 0
s 3.115828915 _2_ AGT  --- 710 tcp 41 [0 0 0 0] ------- [2:0 7:0 32 0] [312 0] 0 0
r 3.115828915 _2_ RTR  --- 710 tcp 41 [0 0 0 0] ------- [2:0 7:0 32 0] [312 0] 0 0
s 3.115828915 _2_ RTR  --- 710 tcp 41 [0 0 0 0] ------- [2:0 7:0 30 7] [312 0] 0 0
r 3.117835911 _2_ AGT  --- 650 ack 40 [13a 2 7 800] ------- [7:0 2:0 30 2] [293 0] 1 0
s 3.117835911 _2_ AGT  --- 711 tcp 41 [0 0 0 0] ------- [2:0 7:0 32 0] [313 0] 0 0
r 3.117835911 _2_ RTR  --- 711 tcp 41 [0 0 0 0] ------- [2:0 7:0 32 0] [313 0] 0 0
s 3.117835911 _2_ RTR  --- 711 tcp 41 [0 0 0 0] ------- [2:0 7:0 30 7] [313 0] 0 0
r 3.119710158 _7_ AGT  --- 708 tcp 41 [13a 7 2 800] ------- [2:0 7:0 30 7] [311 0] 1 0
s 3.119710158 _7_ AGT  --- 712 ack 40 [0 0 0 0] ------- [7:0 2:0 32 0] [311 0] 0 0
r 3.119710158 _7_ RTR  --- 712 ack 40 [0 0 0 0] ------- [7:0 2:0 32 0] [311 0] 0 0
s 3.119710158 _7_ RTR  --- 712 ack 40 [0 0 0 0] ------- [7:0 2:0 30 2] [311 0] 0 0
r 3.121956405 _2_ AGT  --- 657 ack 40 [13a 2 7 800] ------- [7:0 2:0 30 2] [294 0] 1 0
s 3.121956405 _2_ AGT  --- 713 tcp 41 [0 0 0 0] ------- [2:0 7:0 32 0] [314 0] 0 0
r 3.121956405 _2_ RTR  --- 713 tcp 41 [0 0 0 0] ------- [2:0 7:0 32 0] [314 0] 0 0
s 3.121956405 _2_ RTR  --- 713 tcp 41 [0 0 0 0] ------- [2:0 7:0 30 7] [314 0] 0 0
r 3.123803401 _2_ AGT  --- 662 ack 40 [13a 2 7 800] ------- [7:0 2:0 30 2] [295 0] 1 0
s 3.123803401 _2_ AGT  --- 714 tcp 41 [0 0 0 0] ------- [2:0 7:0 32 0] [315 0] 0 0
r 3.123803401 _2_ RTR  --- 714 tcp 41 [0 0 0 0] ------- [2:0 7:0 32 0] [315 0] 0 0
s 3.123803401 _2_ RTR  --- 714 tcp 41 [0 0 0 0] ------- [2:0 7:0 30 7] [315 0] 0 0
r 3.125657648 _7_ AGT  --- 710 tcp 41 [13a 7 2 800] ------- [2:0 7:0 30 7] [312 0] 1 0
s 3.125657648 _7_ AGT  --- 715 ack 40 [0 0 0 0] ------- [7:0 2:0 32 0] [312 0] 0 0
r 3.125657648 _7_ RTR  --- 715 ack 40 [0 0 0 0] ------- [7:0 2:0 32 0] [312 0] 0 0
s 3.125657648 _7_ RTR  --- 715 ack 40 [0 0 0 0] ------- [7:0 2:0 30 2] [312 0] 0 0
r 3.127652644 _7_ AGT  --- 711 tcp 41 [13a 7 2 800] ------- [2:0 7:0 30 7] [313 0] 1 0
s 3.127652644 _7_ AGT  --- 716 ack 40 [0 0 0 0] ------- [7:0 2:0 32 0] [313 0] 0 0
r 3.127652644 _7_ RTR  --- 716 ack 40 [0 0 0 0] ------- [7:0 2:0 32 0] [313 0] 0 0
s 3.127652644 _7_ RTR  --- 716 ack 40 [0 0 0 0] ------- [7:0 2:0 30 2] [313 0] 0 0
r 3.129498890 _2_ AGT  --- 663 ack 40 [13a 2 7 800] ------- [7:0 2:0 30 2] [296 0] 1 0
s 3.129498890 _2_ AGT  --- 717 tcp 41 [0 0 0 0] ------- [2:0 7:0 32 0] [316 0] 0 0
r 3.129498890 _2_ RTR  --- 717 tcp 41 [0 0 0 0] ------- [2:0 7:0 32 0] [316 0] 0 0
s 3.129498890 _2_ RTR  --- 717 tcp 41 [0 0 0 0] ------- [2:0 7:0 30 7] [316 0] 0 0
r 3.131425885 _2_ AGT  --- 665 ack 40 [13a 2 7 800] ------- [7:0 2:0 30 2] [297 0] 1 0
s 3.131425885 _2_ AGT  --- 718 tcp 41 [0 0 0 0] ------- [2:0 7:0 32 0] [317 0] 0 0
r 3.131425885 _2_ RTR  --- 718 tcp 41 [0 0 0 0] ------- [2:0 7:0 32 0] [317 0] 0 0
s 3.131425885 _2_ RTR  --- 718 tcp 41 [0 0 0 0] ------- [2:0 7:0 30 7] [317 0] 0 0
r 3.133412880 _2_ AGT  --- 666 ack 40 [13a 2 7 800] ------- [7:0 2:0 30 2] [298 0] 1 0
s 3.133412880 _2_ AGT  --- 719 tcp 41 [0 0 0 0] ------- [2:0 7:0 32 0] [318 0] 0 0
r 3.133412880 _2_ RTR  --- 719 tcp 41 [0 0 0 0] ------- [2:0 7:0 32 0] [318 0] 0 0
s 3.133412880 _2_ RTR  --- 719 tcp 41 [0 0 0 0] ------- [2:0 7:0 30 7] [318 0] 0 0
r 3.135287126 _7_ AGT  --- 713 tcp 41 [13a 7 2 800] ------- [2:0 7:0 30 7] [314 0] 1 0
s 3.135287126 _7_ AGT  --- 720 ack 40 [0 0 0 0] ------- [7:0 2:0 32 0] [314 0] 0 0
r 3.135287126 _7_ RTR  --- 720 ack 40 [0 0 0 0] ------- [7:0 2:0 32 0] [314 0] 0 0
s 3.135287126 _7_ RTR  --- 720 ack 40 [0 0 0 0] ------- [7:0 2:0 30 2] [314 0] 0 0
r 3.137302121 _7_ AGT  --- 714 tcp 41 [13a 7 2 800] ------- [2:0 7:0 30 7] [315 0] 1 0
s 3.137302121 _7_ AGT  --- 721 ack 40 [0 0 0 0] ------- [7:0 2:0 32 0] [315 0] 0 0
r 3.137302121 _7_ RTR  --- 721 ack 40 [0 0 0 0] ------- [7:0 2:0 32 0] [315 0] 0 0
s 3.137302121 _7_ RTR  --- 721 ack 40 [0 0 0 0] ------- [7:0 2:0 30 2] [315 0] 0 0
r 3.139357116 _7_ AGT  --- 717 tcp 41 [13a 7 2 800] ------- [2:0 7:0 30 7] [316 0] 1 0
s 3.139357116 _7_ AGT  --- 722 ack 40 [0 0 0 0] ------- [7:0 2:0 32 0] [316 0] 0 0
r 3.139357116 _7_ RTR  --- 722 ack 40 [0 0 0 0] ------- [7:0 2:0 32 0] [316 0] 0 0
s 3.139357116 _7_ RTR  --- 722 ack 40 [0 0 0 0] ------- [7:0 2:0 30 2] [316 0] 0 0
r 3.141272110 _7_ AGT  --- 718 tcp 41 [13a 7 2 800] ------- [2:0 7:0 30 7] [317 0] 1 0
s 3.141272110 _7_ AGT  --- 723 ack 40 [0 0 0 0] ------- [7:0 2:0 32 0] [317 0] 0 0
r 3.141272110 _7_ RTR  --- 723 ack 40 [0 0 0 0] ------- [7:0 2:0 32 0] [317 0] 0 0
s 3.141272110 _7_ RTR  --- 723 ack 40 [0 0 0 0] ------- [7:0 2:0 30 2] [317 0] 0 0
r 3.143118356 _2_ AGT  --- 673 ack 40 [13a 2 7 800] ------- [7:0 2:0 30 2] [299 0] 1 0
s 3.143118356 _2_ AGT  --- 724 tcp 41 [0 0 0 0] ------- [2:0 7:0 32 0] [319 0] 0 0
r 3.143118356 _2_ RTR  --- 724 tcp 41 [0 0 0 0] ------- [2:0 7:0 32 0] [319 0] 0 0
s 3.143118356 _2_ RTR  --- 724 tcp 41 [0 0 0 0] ------- [2:0 7:0 30 7] [319 0] 0 0
r 3.145025350 _2_ AGT  --- 675 ack 40 [13a 2 7 800] ------- [7:0 2:0 30 2] [300 0] 1 0
s 3.145025350 _2_ AGT  --- 725 tcp 41 [0 0 0 0] ------- [2:0 7:0 32 0] [320 0] 0 0
r 3.145025350 _2_ RTR  --- 725 tcp 41 [0 0 0 0] ------- [2:0 7:0 32 0] [320 0] 0 0
s 3.145025350 _2_ RTR  --- 725 tcp 41 [0 0 0 0] ------- [2:0 7:0 30 7] [320 0] 0 0
r 3.146972344 _2_ AGT  --- 676 ack 40 [13a 2 7 800] ------- [7:0 2:0 30 2] [301 0] 1 0
s 3.146972344 _2_ AGT  --- 726 tcp 41 [0 0 0 0] ------- [2:0 7:0 32 0] [321 0] 0 0
r 3.146972344 _2_ RTR  --- 726 tcp 41 [0 0 0 0] ------- [2:0 7:0 32 0] [321 0] 0 0
s 3.146972344 _2_ RTR  --- 726 tcp 41 [0 0 0 0] ------- [2:0 7:0 30 7] [321 0] 0 0
r 3.149099337 _2_ AGT  --- 677 ack 40 [13a 2 7 800] ------- [7:0 2:0 30 2] [302 0] 1 0
s 3.149099337 _2_ AGT  --- 727 tcp 41 [0 0 0 0] ------- [2:0 7:0 32 0] [322 0] 0 0
r 3.149099337 _2_ RTR  --- 727 tcp 41 [0 0 0 0] ------- [2:0 7:0 32 0] [322 0] 0 0
s 3.149099337 _2_ RTR  --- 727 tcp 41 [0 0 0 0] ------- [2:0 7:0 30 7] [322 0] 0 0
r 3.150973583 _7_ AGT  --- 719 tcp 41 [13a 7 2 800] ------- [2:0 7:0 30 7] [318 0] 1 0
s 3.150973583 _7_ AGT  --- 728 ack 40 [0 0 0 0] ------- [7:0 2:0 32 0] [318 0] 0 0
r 3.150973583 _7_ RTR  --- 728 ack 40 [0 0 0 0] ------- [7:0 2:0 32 0] [318 0] 0 0
s 3.150973583 _7_ RTR  --- 728 ack 40 [0 0 0 0] ------- [7:0 2:0 30 2] [318 0] 0 0
r 3.152868576 _7_ AGT  --- 724 tcp 41 [13a 7 2 800] ------- [2:0 7:0 30 7] [319 0] 1 0
s 3.152868576 _7_ AGT  --- 729 ack 40 [0 0 0 0] ------- [7:0 2:0 32 0] [319 0] 0 0
r 3.152868576 _7_ RTR  --- 729 ack 40 [0 0 0 0] ------- [7:0 2:0 32 0] [319 0] 0 0
s 3.152868576 _7_ RTR  --- 729 ack 40 [0 0 0 0] ------- [7:0 2:0 30 2] [319 0] 0 0
r 3.154783569 _7_ AGT  --- 725 tcp 41 [13a 7 2 800] ------- [2:0 7:0 30 7] [320 0] 1 0
s 3.154783569 _7_ AGT  --- 730 ack 40 [0 0 0 0] ------- [7:0 2:0 32 0] [320 0] 0 0
r 3.154783569 _7_ RTR  --- 730 ack 40 [0 0 0 0] ------- [7:0 2:0 32 0] [320 0] 0 0
s 3.154783569 _7_ RTR  --- 730 ack 40 [0 0 0 0] ------- [7:0 2:0 30 2] [320 0] 0 0
r 3.156929814 _2_ AGT  --- 679 ack 40 [13a 2 7 800] ------- [7:0 2:0 30 2] [303 0] 1 0
s 3.156929814 _2_ AGT  --- 731 tcp 41 [0 0 0 0] ------- [2:0 7:0 32 0] [323 0] 0 0
r 3.156929814 _2_ RTR  --- 731 tcp 41 [0 0 0 0] ------- [2:0 7:0 32 0] [323 0] 0 0
s 3.156929814 _2_ RTR  --- 731 tcp 41 [0 0 0 0] ------- [2:0 7:0 30 7] [323 0] 0 0
r 3.158836807 _2_ AGT  --- 680 ack 40 [13a 2 7 800] ------- [7:0 2:0 30 2] [304 0] 1 0
s 3.158836807 _2_ AGT  --- 732 tcp 41 [0 0 0 0] ------- [2:0 7:0 32 0] [324 0] 0 0
r 3.158836807 _2_ RTR  --- 732 tcp 41 [0 0 0 0] ------- [2:0 7:0 32 0] [324 0] 0 0
s 3.158836807 _2_ RTR  --- 732 tcp 41 [0 0 0 0] ------- [2:0 7:0 30 7] [324 0] 0 0
r 3.160703800 _2_ AGT  --- 681 ack 40 [13a 2 7 800] ------- [7:0 2:0 30 2] [305 0] 1 0
s 3.160703800 _2_ AGT  --- 733 tcp 41 [0 0 0 0] ------- [2:0 7:0 32 0] [325 0] 0 0
r 3.160703800 _2_ RTR  --- 733 tcp 41 [0 0 0 0] ------- [2:0 7:0 32 0] [325 0] 0 0
s 3.160703800 _2_ RTR  --- 733 tcp 41 [0 0 0 0] ------- [2:0 7:0 30 7] [325 0] 0 0
r 3.162730792 _2_ AGT  --- 700 ack 40 [13a 2 7 800] ------- [7:0 2:0 30 2] [306 0] 1 0
s 3.162730792 _2_ AGT  --- 734 tcp 41 [0 0 0 0] ------- [2:0 7:0 32 0] [326 0] 0 0
r 3.162730792 _2_ RTR  --- 734 tcp 41 [0 0 0 0] ------- [2:0 7:0 32 0] [326 0] 0 0
s 3.162730792 _2_ RTR  --- 734 tcp 41 [0 0 0 0] ------- [2:0 7:0 30 7] [326 0] 0 0
r 3.164705037 _7_ AGT  --- 726 tcp 41 [13a 7 2 800] ------- [2:0 7:0 30 7] [321 0] 1 0
s 3.164705037 _7_ AGT  --- 735 ack 40 [0 0 0 0] ------- [7:0 2:0 32 0] [321 0] 0 0
r 3.164705037 _7_ RTR  --- 735 ack 40 [0 0 0 0] ------- [7:0 2:0 32 0] [321 0] 0 0
s 3.164705037 _7_ RTR  --- 735 ack 40 [0 0 0 0] ------- [7:0 2:0 30 2] [321 0] 0 0
r 3.166591281 _2_ AGT  --- 702 ack 40 [13a 2 7 800] ------- [7:0 2:0 30 2] [307 0] 1 0
s 3.166591281 _2_ AGT  --- 736 tcp 41 [0 0 0 0] ------- [2:0 7:0 32 0] [327 0] 0 0
r 3.166591281 _2_ RTR  --- 736 tcp 41 [0 0 0 0] ------- [2:0 7:0 32 0] [327 0] 0 0
s 3.166591281 _2_ RTR  --- 736 tcp 41 [0 0 0 0] ------- [2:0 7:0 30 7] [327 0] 0 0
r 3.168418273 _2_ AGT  --- 705 ack 40 [13a 2 7 800] ------- [7:0 2:0 30 2] [308 0] 1 0
s 3.168418273 _2_ AGT  --- 737 tcp 41 [0 0 0 0] ------- [2:0 7:0 32 0] [328 0] 0 0
r 3.168418273 _2_ RTR  --- 737 tcp 41 [0 0 0 0] ------- [2:0 7:0 32 0] [328 0] 0 0
s 3.168418273 _2_ RTR  --- 737 tcp 41 [0 0 0 0] ------- [2:0 7:0 30 7] [328 0] 0 0
r 3.170265265 _2_ AGT  --- 707 ack 40 [13a 2 7 800] ------- [7:0 2:0 30 2] [309 0] 1 0
s 3.170265265 _2_ AGT  --- 738 tcp 41 [0 0 0 0] ------- [2:0 7:0 32 0] [329 0] 0 0
r 3.170265265 _2_ RTR  --- 738 tcp 41 [0 0 0 0] ------- [2:0 7:0 32 0] [329 0] 0 0
s 3.170265265 _2_ RTR  --- 738 tcp 41 [0 0 0 0] ------- [2:0 7:0 30 7] [329 0] 0 0
r 3.172179509 _7_ AGT  --- 727 tcp 41 [13a 7 2 800] ------- [2:0 7:0 30 7] [322 0] 1 0
s 3.172179509 _7_ AGT  --- 739 ack 40 [0 0 0 0] ------- [7:0 2:0 32 0] [322 0] 0 0
r 3.172179509 _7_ RTR  --- 739 ack 40 [0 0 0 0] ------- [7:0 2:0 32 0] [322 0] 0 0
s 3.172179509 _7_ RTR  --- 739 ack 40 [0 0 0 0] ------- [7:0 2:0 30 2] [322 0] 0 0
r 3.174225753 _2_ AGT  --- 709 ack 40 [13a 2 7 800] ------- [7:0 2:0 30 2] [310 0] 1 0
s 3.174225753 _2_ AGT  --- 740 tcp 41 [0 0 0 0] ------- [2:0 7:0 32 0] [330 0] 0 0
r 3.174225753 _2_ RTR  --- 740 tcp 41 [0 0 0 0] ------- [2:0 7:0 32 0] [330 0] 0 0
s 3.174225753 _2_ RTR  --- 740 tcp 41 [0 0 0 0] ------- [2:0 7:0 30 7] [330 0] 0 0
r 3.176092744 _2_ AGT  --- 712 ack 40 [13a 2 7 800] ------- [7:0 2:0 30 2] [311 0] 1 0
s 3.176092744 _2_ AGT  --- 741 tcp 41 [0 0 0 0] ------- [2:0 7:0 32 0] [331 0] 0 0
r 3.176092744 _2_ RTR  --- 741 tcp 41 [0 0 0 0] ------- [2:0 7:0 32 0] [331 0] 0 0
s 3.176092744 _2_ RTR  --- 741 tcp 41 [0 0 0 0] ------- [2:0 7:0 30 7] [331 0] 0 0
r 3.178206988 _7_ AGT  --- 731 tcp 41 [13a 7 2 800] ------- [2:0 7:0 30 7] [323 0] 1 0
s 3.178206988 _7_ AGT  --- 742 ack 40 [0 0 0 0] ------- [7:0 2:0 32 0] [323 0] 0 0
r 3.178206988 _7_ RTR  --- 742 ack 40 [0 0 0 0] ------- [7:0 2:0 32 0] [323 0] 0 0
s 3.178206988 _7_ RTR  --- 742 ack 40 [0 0 0 0] ------- [7:0 2:0 30 2] [323 0] 0 0
r 3.180313231 _2_ AGT  --- 715 ack 40 [13a 2 7 800] ------- [7:0 2:0 30 2] [312 0] 1 0
s 3.180313231 _2_ AGT  --- 743 tcp 41 [0 0 0 0] ------- [2:0 7:0 32 0] [332 0] 0 0
r 3.180313231 _2_ RTR  --- 743 tcp 41 [0 0 0 0] ------- [2:0 7:0 32 0] [332 0] 0 0
s 3.180313231 _2_ RTR  --- 743 tcp 41 [0 0 0 0] ------- [2:0 7:0 30 7] [332 0] 0 0
r 3.182267474 _7_ AGT  --- 732 tcp 41 [13a 7 2 800] ------- [2:0 7:0 30 7] [324 0] 1 0
s 3.182267474 _7_ AGT  --- 744 ack 40 [0 0 0 0] ------- [7:0 2:0 32 0] [324 0] 0 0
r 3.182267474 _7_ RTR  --- 744 ack 40 [0 0 0 0] ------- [7:0 2:0 32 0] [324 0] 0 0
s 3.182267474 _7_ RTR  --- 744 ack 40 [0 0 0 0] ------- [7:0 2:0 30 2] [324 0] 0 0
r 3.184262465 _7_ AGT  --- 733 tcp 41 [13a 7 2 800] ------- [2:0 7:0 30 7] [325 0] 1 0
s 3.184262465 _7_ AGT  --- 745 ack 40 [0 0 0 0] ------- [7:0 2:0 32 0] [325 0] 0 0
r 3.184262465 _7_ RTR  --- 745 ack 40 [0 0 0 0] ------- [7:0 2:0 32 0] [325 0] 0 0
s 3.184262465 _7_ RTR  --- 745 ack 40 [0 0 0 0] ------- [7:0 2:0 30 2] [325 0] 0 0
r 3.186148708 _2_ AGT  --- 716 ack 40 [13a 2 7 800] ------- [7:0 2:0 30 2] [313 0] 1 0
s 3.186148708 _2_ AGT  --- 746 tcp 41 [0 0 0 0] ------- [2:0 7:0 32 0] [333 0] 0 0
r 3.186148708 _2_ RTR  --- 746 tcp 41 [0 0 0 0] ------- [2:0 7:0 32 0] [333 0] 0 0
s 3.186148708 _2_ RTR  --- 746 tcp 41 [0 0 0 0] ------- [2:0 7:0 30 7] [333 0] 0 0
D 3.186473583 _4_ RTR  CBK 683 tcp 41 [13a 11 4 800] ------- [4:0 5:0 30 17] [34 0] 0 0
D 3.186473583 _4_ RTR  CBK 684 tcp 41 [0 11 4 800] ------- [4:0 5:0 30 17] [35 0] 0 0
D 3.186473583 _4_ RTR  CBK 688 tcp 41 [0 11 4 800] ------- [4:0 5:0 30 17] [36 0] 0 0
D 3.186473583 _4_ RTR  CBK 689 tcp 41 [0 11 4 800] ------- [4:0 5:0 30 17] [37 0] 0 0
D 3.186473583 _4_ RTR  CBK 691 tcp 41 [0 11 4 800] ------- [4:0 5:0 30 17] [38 0] 0 0
D 3.186473583 _4_ RTR  CBK 692 tcp 41 [0 11 4 800] ------- [4:0 5:0 30 17] [39 0] 0 0
D 3.186473583 _4_ RTR  CBK 693 tcp 41 [0 11 4 800] ------- [4:0 5:0 30 17] [40 0] 0 0
D 3.186473583 _4_ RTR  CBK 694 tcp 41 [0 11 4 800] ------- [4:0 5:0 30 17] [41 0] 0 0
s 3.186473583 _4_ RTR  --- 0 AODV 32 [0 0 0 0] ------- [4:255 -1:255 1 0] [0x8 1 [5 0] 0.000000] (ERROR)
r 3.188306196 _7_ AGT  --- 734 tcp 41 [13a 7 2 800] ------- [2:0 7:0 30 7] [326 0] 1 0
s 3.188306196 _7_ AGT  --- 747 ack 40 [0 0 0 0] ------- [7:0 2:0 32 0] [326 0] 0 0
r 3.188306196 _7_ RTR  --- 747 ack 40 [0 0 0 0] ------- [7:0 2:0 32 0] [326 0] 0 0
s 3.188306196 _7_ RTR  --- 747 ack 40 [0 0 0 0] ------- [7:0 2:0 30 2] [326 0] 0 0
r 3.189749031 _17_ RTR  --- 0 AODV 48 [0 ffffffff 4 800] ------- [4:255 -1:255 29 0] [0x2 2 2 [9 0] [0 6]] (REQUEST)
r 3.189749370 _6_ RTR  --- 0 AODV 48 [0 ffffffff 4 800] ------- [4:255 -1:255 29 0] [0x2 2 2 [9 0] [0 6]] (REQUEST)
r 3.189749518 _13_ RTR  --- 0 AODV 48 [0 ffffffff 4 800] ------- [4:255 -1:255 29 0] [0x2 2 2 [9 0] [0 6]] (REQUEST)
r 3.190839031 _17_ RTR  --- 0 AODV 32 [0 ffffffff 4 800] ------- [4:255 -1:255 1 0] [0x8 1 [5 0] 0.000000] (ERROR)
r 3.190839300 _0_ RTR  --- 0 AODV 32 [0 ffffffff 4 800] ------- [4:255 -1:255 1 0] [0x8 1 [5 0] 0.000000] (ERROR)
r 3.190839370 _6_ RTR  --- 0 AODV 32 [0 ffffffff 4 800] ------- [4:255 -1:255 1 0] [0x8 1 [5 0] 0.000000] (ERROR)
r 3.190839447 _1_ RTR  --- 0 AODV 32 [0 ffffffff 4 800] ------- [4:255 -1:255 1 0] [0x8 1 [5 0] 0.000000] (ERROR)
r 3.190839518 _13_ RTR  --- 0 AODV 32 [0 ffffffff 4 800] ------- [4:255 -1:255 1 0] [0x8 1 [5 0] 0.000000] (ERROR)
r 3.190839601 _14_ RTR  --- 0 AODV 32 [0 ffffffff 4 800] ------- [4:255 -1:255 1 0] [0x8 1 [5 0] 0.000000] (ERROR)
r 3.191817031 _17_ RTR  --- 0 AODV 48 [0 ffffffff 4 800] ------- [4:255 -1:255 29 0] [0x2 2 2 [8 0] [1 6]] (REQUEST)
r 3.191817300 _0_ RTR  --- 0 AODV 48 [0 ffffffff 4 800] ------- [4:255 -1:255 29 0] [0x2 2 2 [8 0] [1 6]] (REQUEST)
r 3.191817370 _6_ RTR  --- 0 AODV 48 [0 ffffffff 4 800] ------- [4:255 -1:255 29 0] [0x2 2 2 [8 0] [1 6]] (REQUEST)
r 3.191817447 _1_ RTR  --- 0 AODV 48 [0 ffffffff 4 800] ------- [4:255 -1:255 29 0] [0x2 2 2 [8 0] [1 6]] (REQUEST)
r 3.191817518 _13_ RTR  --- 0 AODV 48 [0 ffffffff 4 800] ------- [4:255 -1:255 29 0] [0x2 2 2 [8 0] [1 6]] (REQUEST)
r 3.191817601 _14_ RTR  --- 0 AODV 48 [0 ffffffff 4 800] ------- [4:255 -1:255 29 0] [0x2 2 2 [8 0] [1 6]] (REQUEST)
r 3.193822432 _7_ AGT  --- 736 tcp 41 [13a 7 2 800] ------- [2:0 7:0 30 7] [327 0] 1 0
s 3.193822432 _7_ AGT  --- 748 ack 40 [0 0 0 0] ------- [7:0 2:0 32 0] [327 0] 0 0
r 3.193822432 _7_ RTR  --- 748 ack 40 [0 0 0 0] ------- [7:0 2:0 32 0] [327 0] 0 0
s 3.193822432 _7_ RTR  --- 748 ack 40 [0 0 0 0] ------- [7:0 2:0 30 2] [327 0] 0 0
r 3.195817422 _7_ AGT  --- 737 tcp 41 [13a 7 2 800] ------- [2:0 7:0 30 7] [328 0] 1 0
s 3.195817422 _7_ AGT  --- 749 ack 40 [0 0 0 0] ------- [7:0 2:0 32 0] [328 0] 0 0
r 3.195817422 _7_ RTR  --- 749 ack 40 [0 0 0 0] ------- [7:0 2:0 32 0] [328 0] 0 0
s 3.195817422 _7_ RTR  --- 749 ack 40 [0 0 0 0] ------- [7:0 2:0 30 2] [328 0] 0 0
r 3.198052412 _7_ AGT  --- 738 tcp 41 [13a 7 2 800] ------- [2:0 7:0 30 7] [329 0] 1 0
s 3.198052412 _7_ AGT  --- 750 ack 40 [0 0 0 0] ------- [7:0 2:0 32 0] [329 0] 0 0
r 3.198052412 _7_ RTR  --- 750 ack 40 [0 0 0 0] ------- [7:0 2:0 32 0] [329 0] 0 0
s 3.198052412 _7_ RTR  --- 750 ack 40 [0 0 0 0] ------- [7:0 2:0 30 2] [329 0] 0 0
r 3.200047401 _7_ AGT  --- 740 tcp 41 [13a 7 2 800] ------- [2:0 7:0 30 7] [330 0] 1 0
s 3.200047401 _7_ AGT  --- 751 ack 40 [0 0 0 0] ------- [7:0 2:0 32 0] [330 0] 0 0
r 3.200047401 _7_ RTR  --- 751 ack 40 [0 0 0 0] ------- [7:0 2:0 32 0] [330 0] 0 0
s 3.200047401 _7_ RTR  --- 751 ack 40 [0 0 0 0] ------- [7:0 2:0 30 2] [330 0] 0 0
r 3.202262391 _7_ AGT  --- 741 tcp 41 [13a 7 2 800] ------- [2:0 7:0 30 7] [331 0] 1 0
s 3.202262391 _7_ AGT  --- 752 ack 40 [0 0 0 0] ------- [7:0 2:0 32 0] [331 0] 0 0
r 3.202262391 _7_ RTR  --- 752 ack 40 [0 0 0 0] ------- [7:0 2:0 32 0] [331 0] 0 0
s 3.202262391 _7_ RTR  --- 752 ack 40 [0 0 0 0] ------- [7:0 2:0 30 2] [331 0] 0 0
r 3.204697380 _7_ AGT  --- 743 tcp 41 [13a 7 2 800] ------- [2:0 7:0 30 7] [332 0] 1 0
s 3.204697380 _7_ AGT  --- 753 ack 40 [0 0 0 0] ------- [7:0 2:0 32 0] [332 0] 0 0
r 3.204697380 _7_ RTR  --- 753 ack 40 [0 0 0 0] ------- [7:0 2:0 32 0] [332 0] 0 0
s 3.204697380 _7_ RTR  --- 753 ack 40 [0 0 0 0] ------- [7:0 2:0 30 2] [332 0] 0 0
r 3.206823621 _2_ AGT  --- 720 ack 40 [13a 2 7 800] ------- [7:0 2:0 30 2] [314 0] 1 0
s 3.206823621 _2_ AGT  --- 754 tcp 41 [0 0 0 0] ------- [2:0 7:0 32 0] [334 0] 0 0
r 3.206823621 _2_ RTR  --- 754 tcp 41 [0 0 0 0] ------- [2:0 7:0 32 0] [334 0] 0 0
s 3.206823621 _2_ RTR  --- 754 tcp 41 [0 0 0 0] ------- [2:0 7:0 30 7] [334 0] 0 0
r 3.208650610 _2_ AGT  --- 721 ack 40 [13a 2 7 800] ------- [7:0 2:0 30 2] [315 0] 1 0
s 3.208650610 _2_ AGT  --- 755 tcp 41 [0 0 0 0] ------- [2:0 7:0 32 0] [335 0] 0 0
r 3.208650610 _2_ RTR  --- 755 tcp 41 [0 0 0 0] ------- [2:0 7:0 32 0] [335 0] 0 0
s 3.208650610 _2_ RTR  --- 755 tcp 41 [0 0 0 0] ------- [2:0 7:0 30 7] [335 0] 0 0
r 3.210604852 _7_ AGT  --- 746 tcp 41 [13a 7 2 800] ------- [2:0 7:0 30 7] [333 0] 1 0
s 3.210604852 _7_ AGT  --- 756 ack 40 [0 0 0 0] ------- [7:0 2:0 32 0] [333 0] 0 0
r 3.210604852 _7_ RTR  --- 756 ack 40 [0 0 0 0] ------- [7:0 2:0 32 0] [333 0] 0 0
s 3.210604852 _7_ RTR  --- 756 ack 40 [0 0 0 0] ------- [7:0 2:0 30 2] [333 0] 0 0
r 3.212479840 _7_ AGT  --- 754 tcp 41 [13a 7 2 800] ------- [2:0 7:0 30 7] [334 0] 1 0
s 3.212479840 _7_ AGT  --- 757 ack 40 [0 0 0 0] ------- [7:0 2:0 32 0] [334 0] 0 0
r 3.212479840 _7_ RTR  --- 757 ack 40 [0 0 0 0] ------- [7:0 2:0 32 0] [334 0] 0 0
s 3.212479840 _7_ RTR  --- 757 ack 40 [0 0 0 0] ------- [7:0 2:0 30 2] [334 0] 0 0
r 3.214506081 _2_ AGT  --- 722 ack 40 [13a 2 7 800] ------- [7:0 2:0 30 2] [316 0] 1 0
s 3.214506081 _2_ AGT  --- 758 tcp 41 [0 0 0 0] ------- [2:0 7:0 32 0] [336 0] 0 0
r 3.214506081 _2_ RTR  --- 758 tcp 41 [0 0 0 0] ------- [2:0 7:0 32 0] [336 0] 0 0
s 3.214506081 _2_ RTR  --- 758 tcp 41 [0 0 0 0] ------- [2:0 7:0 30 7] [336 0] 0 0
r 3.216500322 _7_ AGT  --- 755 tcp 41 [13a 7 2 800] ------- [2:0 7:0 30 7] [335 0] 1 0
s 3.216500322 _7_ AGT  --- 759 ack 40 [0 0 0 0] ------- [7:0 2:0 32 0] [335 0] 0 0
r 3.216500322 _7_ RTR  --- 759 ack 40 [0 0 0 0] ------- [7:0 2:0 32 0] [335 0] 0 0
s 3.216500322 _7_ RTR  --- 759 ack 40 [0 0 0 0] ------- [7:0 2:0 30 2] [335 0] 0 0
r 3.218786563 _2_ AGT  --- 723 ack 40 [13a 2 7 800] ------- [7:0 2:0 30 2] [317 0] 1 0
s 3.218786563 _2_ AGT  --- 760 tcp 41 [0 0 0 0] ------- [2:0 7:0 32 0] [337 0] 0 0
r 3.218786563 _2_ RTR  --- 760 tcp 41 [0 0 0 0] ------- [2:0 7:0 32 0] [337 0] 0 0
s 3.218786563 _2_ RTR  --- 760 tcp 41 [0 0 0 0] ------- [2:0 7:0 30 7] [337 0] 0 0
r 3.220740804 _7_ AGT  --- 758 tcp 41 [13a 7 2 800] ------- [2:0 7:0 30 7] [336 0] 1 0
s 3.220740804 _7_ AGT  --- 761 ack 40 [0 0 0 0] ------- [7:0 2:0 32 0] [336 0] 0 0
r 3.220740804 _7_ RTR  --- 761 ack 40 [0 0 0 0] ------- [7:0 2:0 32 0] [336 0] 0 0
s 3.220740804 _7_ RTR  --- 761 ack 40 [0 0 0 0] ------- [7:0 2:0 30 2] [336 0] 0 0
r 3.223067045 _2_ AGT  --- 728 ack 40 [13a 2 7 800] ------- [7:0 2:0 30 2] [318 0] 1 0
s 3.223067045 _2_ AGT  --- 762 tcp 41 [0 0 0 0] ------- [2:0 7:0 32 0] [338 0] 0 0
r 3.223067045 _2_ RTR  --- 762 tcp 41 [0 0 0 0] ------- [2:0 7:0 32 0] [338 0] 0 0
s 3.223067045 _2_ RTR  --- 762 tcp 41 [0 0 0 0] ------- [2:0 7:0 30 7] [338 0] 0 0
r 3.224941286 _7_ AGT  --- 760 tcp 41 [13a 7 2 800] ------- [2:0 7:0 30 7] [337 0] 1 0
s 3.224941286 _7_ AGT  --- 763 ack 40 [0 0 0 0] ------- [7:0 2:0 32 0] [337 0] 0 0
r 3.224941286 _7_ RTR  --- 763 ack 40 [0 0 0 0] ------- [7:0 2:0 32 0] [337 0] 0 0
s 3.224941286 _7_ RTR  --- 763 ack 40 [0 0 0 0] ------- [7:0 2:0 30 2] [337 0] 0 0
r 3.226876273 _7_ AGT  --- 762 tcp 41 [13a 7 2 800] ------- [2:0 7:0 30 7] [338 0] 1 0
s 3.226876273 _7_ AGT  --- 764 ack 40 [0 0 0 0] ------- [7:0 2:0 32 0] [338 0] 0 0
r 3.226876273 _7_ RTR  --- 764 ack 40 [0 0 0 0] ------- [7:0 2:0 32 0] [338 0] 0 0
s 3.226876273 _7_ RTR  --- 764 ack 40 [0 0 0 0] ------- [7:0 2:0 30 2] [338 0] 0 0
r 3.228742513 _2_ AGT  --- 729 ack 40 [13a 2 7 800] ------- [7:0 2:0 30 2] [319 0] 1 0
s 3.228742513 _2_ AGT  --- 765 tcp 41 [0 0 0 0] ------- [2:0 7:0 32 0] [339 0] 0 0
r 3.228742513 _2_ RTR  --- 765 tcp 41 [0 0 0 0] ------- [2:0 7:0 32 0] [339 0] 0 0
s 3.228742513 _2_ RTR  --- 765 tcp 41 [0 0 0 0] ------- [2:0 7:0 30 7] [339 0] 0 0
r 3.230849500 _2_ AGT  --- 730 ack 40 [13a 2 7 800] ------- [7:0 2:0 30 2] [320 0] 1 0
s 3.230849500 _2_ AGT  --- 766 tcp 41 [0 0 0 0] ------- [2:0 7:0 32 0] [340 0] 0 0
r 3.230849500 _2_ RTR  --- 766 tcp 41 [0 0 0 0] ------- [2:0 7:0 32 0] [340 0] 0 0
s 3.230849500 _2_ RTR  --- 766 tcp 41 [0 0 0 0] ------- [2:0 7:0 30 7] [340 0] 0 0
r 3.232763740 _7_ AGT  --- 765 tcp 41 [13a 7 2 800] ------- [2:0 7:0 30 7] [339 0] 1 0
s 3.232763740 _7_ AGT  --- 767 ack 40 [0 0 0 0] ------- [7:0 2:0 32 0] [339 0] 0 0
r 3.232763740 _7_ RTR  --- 767 ack 40 [0 0 0 0] ------- [7:0 2:0 32 0] [339 0] 0 0
s 3.232763740 _7_ RTR  --- 767 ack 40 [0 0 0 0] ------- [7:0 2:0 30 2] [339 0] 0 0
r 3.234818727 _7_ AGT  --- 766 tcp 41 [13a 7 2 800] ------- [2:0 7:0 30 7] [340 0] 1 0
s 3.234818727 _7_ AGT  --- 768 ack 40 [0 0 0 0] ------- [7:0 2:0 32 0] [340 0] 0 0
r 3.234818727 _7_ RTR  --- 768 ack 40 [0 0 0 0] ------- [7:0 2:0 32 0] [340 0] 0 0
s 3.234818727 _7_ RTR  --- 768 ack 40 [0 0 0 0] ------- [7:0 2:0 30 2] [340 0] 0 0
r 3.236744967 _2_ AGT  --- 735 ack 40 [13a 2 7 800] ------- [7:0 2:0 30 2] [321 0] 1 0
s 3.236744967 _2_ AGT  --- 769 tcp 41 [0 0 0 0] ------- [2:0 7:0 32 0] [341 0] 0 0
r 3.236744967 _2_ RTR  --- 769 tcp 41 [0 0 0 0] ------- [2:0 7:0 32 0] [341 0] 0 0
s 3.236744967 _2_ RTR  --- 769 tcp 41 [0 0 0 0] ------- [2:0 7:0 30 7] [341 0] 0 0
r 3.238651953 _2_ AGT  --- 739 ack 40 [13a 2 7 800] ------- [7:0 2:0 30 2] [322 0] 1 0
s 3.238651953 _2_ AGT  --- 770 tcp 41 [0 0 0 0] ------- [2:0 7:0 32 0] [342 0] 0 0
r 3.238651953 _2_ RTR  --- 770 tcp 41 [0 0 0 0] ------- [2:0 7:0 32 0] [342 0] 0 0
s 3.238651953 _2_ RTR  --- 770 tcp 41 [0 0 0 0] ------- [2:0 7:0 30 7] [342 0] 0 0
r 3.240926193 _7_ AGT  --- 769 tcp 41 [13a 7 2 800] ------- [2:0 7:0 30 7] [341 0] 1 0
s 3.240926193 _7_ AGT  --- 771 ack 40 [0 0 0 0] ------- [7:0 2:0 32 0] [341 0] 0 0
r 3.240926193 _7_ RTR  --- 771 ack 40 [0 0 0 0] ------- [7:0 2:0 32 0] [341 0] 0 0
s 3.240926193 _7_ RTR  --- 771 ack 40 [0 0 0 0] ------- [7:0 2:0 30 2] [341 0] 0 0
r 3.242821178 _7_ AGT  --- 770 tcp 41 [13a 7 2 800] ------- [2:0 7:0 30 7] [342 0] 1 0
s 3.242821178 _7_ AGT  --- 772 ack 40 [0 0 0 0] ------- [7:0 2:0 32 0] [342 0] 0 0
r 3.242821178 _7_ RTR  --- 772 ack 40 [0 0 0 0] ------- [7:0 2:0 32 0] [342 0] 0 0
s 3.242821178 _7_ RTR  --- 772 ack 40 [0 0 0 0] ------- [7:0 2:0 30 2] [342 0] 0 0
r 3.244767418 _2_ AGT  --- 742 ack 40 [13a 2 7 800] ------- [7:0 2:0 30 2] [323 0] 1 0
s 3.244767418 _2_ AGT  --- 773 tcp 41 [0 0 0 0] ------- [2:0 7:0 32 0] [343 0] 0 0